
                                 *****************
                                 * O   R   C   A *
                                 *****************

                                            #,                                       
                                            ###                                      
                                            ####                                     
                                            #####                                    
                                            ######                                   
                                           ########,                                 
                                     ,,################,,,,,                         
                               ,,#################################,,                 
                          ,,##########################################,,             
                       ,#########################################, ''#####,          
                    ,#############################################,,   '####,        
                  ,##################################################,,,,####,       
                ,###########''''           ''''###############################       
              ,#####''   ,,,,##########,,,,          '''####'''          '####       
            ,##' ,,,,###########################,,,                        '##       
           ' ,,###''''                  '''############,,,                           
         ,,##''                                '''############,,,,        ,,,,,,###''
      ,#''                                            '''#######################'''  
     '                                                          ''''####''''         
             ,#######,   #######,   ,#######,      ##                                
            ,#'     '#,  ##    ##  ,#'     '#,    #''#        ,####,   ,####,        
            ##       ##  ##   ,#'  ##            #'  '#       #'       #'  '#        
            ##       ##  #######   ##           ,######,      #####,   #    #        
            '#,     ,#'  ##    ##  '#,     ,#' ,#      #,     #,   #   #,  ,#        
             '#######'   ##     ##  '#######'  #'      '#     '####' # '####'        



                #########################################################
                #                        -***-                          #
                #          Department of theory and spectroscopy        #
                #                                                       #
                #                      Frank Neese                      #
                #                                                       #
                #     Directorship, Architecture, Infrastructure        #
                #                    SHARK, DRIVERS                     #
                #        Core code/Algorithms in most modules           #
                #                                                       #
                #        Max Planck Institute fuer Kohlenforschung      #
                #                Kaiser Wilhelm Platz 1                 #
                #                 D-45470 Muelheim/Ruhr                 #
                #                      Germany                          #
                #                                                       #
                #                  All rights reserved                  #
                #                        -***-                          #
                #########################################################


                         Program Version 6.0.0  -   RELEASE  -


 With contributions from (in alphabetic order):
   Daniel Aravena         : Magnetic Suceptibility
   Michael Atanasov       : Ab Initio Ligand Field Theory (pilot matlab implementation)
   Alexander A. Auer      : GIAO ZORA, VPT2 properties, NMR spectrum
   Ute Becker             : All parallelization in ORCA, NUMFREQ, NUMCALC
   Giovanni Bistoni       : ED, misc. LED, open-shell LED, HFLD
   Martin Brehm           : Molecular dynamics
   Dmytro Bykov           : pre 5.0 version of the SCF Hessian
   Marcos Casanova-Páez   : Triplet and SCS-CIS(D). UHF-(DLPNO)-IP/EA/STEOM-CCSD. UHF-CVS-IP/STEOM-CCSD
   Vijay G. Chilkuri      : MRCI spin determinant printing, contributions to CSF-ICE
   Pauline Colinet        : FMM embedding
   Dipayan Datta          : RHF DLPNO-CCSD density
   Achintya Kumar Dutta   : EOM-CC, STEOM-CC
   Nicolas Foglia         : Exact transition moments, OPA infrastructure, MCD improvements
   Dmitry Ganyushin       : Spin-Orbit,Spin-Spin,Magnetic field MRCI
   Miquel Garcia          : C-PCM and meta-GGA Hessian, CCSD/C-PCM, Gaussian charge scheme
   Tiago L. C. Gouveia    : GS-ROHF, GS-ROCIS
   Yang Guo               : DLPNO-NEVPT2, F12-NEVPT2, CIM, IAO-localization
   Andreas Hansen         : Spin unrestricted coupled pair/coupled cluster methods
   Ingolf Harden          : AUTO-CI MPn and infrastructure 
   Benjamin Helmich-Paris : MC-RPA, TRAH-(SCF,CASSCF), AVAS, COSX integrals, SCF dyn. polar.
   Lee Huntington         : MR-EOM, pCC
   Robert Izsak           : Overlap fitted RIJCOSX, COSX-SCS-MP3, EOM
   Riya Kayal             : Wick's Theorem for AUTO-CI, AUTO-CI UHF-CCSDT
   Emily Kempfer          : AUTO-CI, RHF CISDT and CCSDT
   Christian Kollmar      : KDIIS, OOCD, Brueckner-CCSD(T), CCSD density, CASPT2, CASPT2-K, improved NEVPT2
   Axel Koslowski         : Symmetry handling
   Simone Kossmann        : Meta GGA functionals, TD-DFT gradient, OOMP2, (MP2 Hessian; deprecated post 5.0)
   Lucas Lang             : DCDCAS
   Marvin Lechner         : AUTO-CI (C++ implementation), FIC-MRCC
   Spencer Leger          : CASSCF response
   Dagmar Lenk            : GEPOL surface, SMD, ORCA-2-JSON
   Dimitrios Liakos       : Extrapolation schemes; Compound Job, initial MDCI parallelization
   Dimitrios Manganas     : Further ROCIS development; embedding schemes. LFT, Crystal Embedding
   Dimitrios Pantazis     : SARC Basis sets
   Anastasios Papadopoulos: AUTO-CI, single reference methods and gradients
   Taras Petrenko         : pre 6.0 DFT Hessian and TD-DFT gradient, (ASA, deprecated), ECA, 1-Electron XAS/XES, NRVS
   Peter Pinski           : DLPNO-MP2, DLPNO-MP2 Gradient
   Christoph Reimann      : Effective Core Potentials
   Marius Retegan         : Local ZFS, SOC
   Christoph Riplinger    : Optimizer, TS searches, QM/MM, DLPNO-CCSD(T), (RO)-DLPNO pert. Triples
   Michael Roemelt        : Original ROCIS implementation
   Masaaki Saitow         : Open-shell DLPNO-CCSD energy and density
   Barbara Sandhoefer     : DKH picture change effects
   Kantharuban Sivalingam : CASSCF convergence/infrastructure, NEVPT2 and variants, FIC-MRCI
   Bernardo de Souza      : ESD, SOC TD-DFT
   Georgi Stoychev        : AutoAux, RI-MP2 NMR, DLPNO-MP2 response, X2C
   Van Anh Tran           : RI-MP2 g-tensors
   Willem Van den Heuvel  : Paramagnetic NMR
   Zikuan Wang            : NOTCH, Electric field optimization 
   Frank Wennmohs         : Technical directorship and infrastructure
   Hang Xu                : AUTO-CI-Response properties 


 We gratefully acknowledge several colleagues who have allowed us to
 interface, adapt or use parts of their codes:
   Stefan Grimme, W. Hujo, H. Kruse, P. Pracht,  : VdW corrections, initial TS optimization,
                  C. Bannwarth, S. Ehlert,         DFT functionals, gCP, sTDA/sTD-DF
                  L. Wittmann, M. Mueller
   Ed Valeev, F. Pavosevic, A. Kumar             : LibInt (2-el integral package), F12 methods
   Garnet Chan, S. Sharma, J. Yang, R. Olivares  : DMRG
   Ulf Ekstrom                                   : XCFun DFT Library
   Mihaly Kallay                                 : mrcc  (arbitrary order and MRCC methods)
   Frank Weinhold                                : gennbo (NPA and NBO analysis)
   Simon Mueller                                 : openCOSMO-RS
   Christopher J. Cramer and Donald G. Truhlar   : smd solvation model
   Lars Goerigk                                  : TD-DFT with DH, B97 family of functionals
   V. Asgeirsson, H. Jonsson                     : NEB implementation
   FAccTs GmbH                                   : IRC, NEB, NEB-TS, DLPNO-Multilevel, CI-OPT
                                                   MM, QMMM, 2- and 3-layer-ONIOM, Crystal-QMMM,
                                                   LR-CPCM, SF, NACMEs, symmetry and pop. for TD-DFT,
                                                   nearIR, NL-DFT gradient (VV10), updates on ESD,
                                                   ML-optimized integration grids, MBIS, APM,
                                                   GOAT, DOCKER, SOLVATOR, interface openCOSMO-RS
   S Lehtola, MJT Oliveira, MAL Marques          : LibXC Library
   Liviu Ungur et al                             : ANISO software


 Your calculation uses the libint2 library for the computation of 2-el integrals
 For citations please refer to: http://libint.valeyev.net

 Your ORCA version has been built with support for libXC version: 6.2.2
 For citations please refer to: https://libxc.gitlab.io

 This ORCA versions uses:
   CBLAS   interface :  Fast vector & matrix operations
   LAPACKE interface :  Fast linear algebra routines
   SCALAPACK package :  Parallel linear algebra routines
   Shared memory     :  Shared parallel matrices
   BLAS/LAPACK       :  OpenBLAS 0.3.27  USE64BITINT DYNAMIC_ARCH NO_AFFINITY Haswell SINGLE_THREADED
        Core in use  :  Haswell
   Copyright (c) 2011-2014, The OpenBLAS Project


================================================================================

----- Orbital basis set information -----
Your calculation utilizes the basis: cc-pVTZ 
       H, B-Ne : Obtained from the ccRepo (grant-hill.group.shef.ac.uk/ccrepo) Feb. 2017
                 T. H. Dunning, Jr., J. Chem. Phys. 90, 1007 (1989)
            He : Obtained from the ccRepo (grant-hill.group.shef.ac.uk/ccrepo) Feb. 2017
                 D. E. Woon, T. H. Dunning, Jr., J. Chem. Phys. 100, 2975 (1994)
  Li-Be, Na-Mg : Obtained from the ccRepo (grant-hill.group.shef.ac.uk/ccrepo) Feb. 2017
                 B. P. Prascher, D. E. Woon, K. A. Peterson, T. H. Dunning, Jr., A. K. Wilson, Theor. Chem. Acc. 128, 69 (2011)
         Al-Ar : Obtained from the ccRepo (grant-hill.group.shef.ac.uk/ccrepo) Feb. 2017
                 D. E. Woon, T. H. Dunning, Jr., J. Chem. Phys. 98, 1358 (1993)
            Ca : Obtained from the Peterson Research Group Website (tyr0.chem.wsu.edu/~kipeters) Feb. 2017
                 J. Koput, K. A. Peterson, J. Phys. Chem. 106, 9595 (2002)
         Sc-Zn : Obtained from the ccRepo (grant-hill.group.shef.ac.uk/ccrepo) Feb. 2017
                 N. B. Balabanov, K. A. Peterson, J. Chem. Phys. 123, 064107 (2005)
                 N. B. Balabanov, K. A. Peterson, J. Chem. Phys. 125, 074110 (2006)
         Ga-Kr : Obtained from the ccRepo (grant-hill.group.shef.ac.uk/ccrepo) Feb. 2017
                 A. K. Wilson, D. E. Woon, K. A. Peterson, T. H. Dunning, Jr., J. Chem. Phys. 110, 7667 (1999)
             Y : Obtained from the ccRepo (grant-hill.group.shef.ac.uk/ccrepo) Feb. 2017
                 K. A. Peterson, D. Figgen, M. Dolg, H. Stoll, J. Chem. Phys. 126, 124101 (2007)
        Ag, Au : Obtained from the Peterson Research Group Website (tyr0.chem.wsu.edu/~kipeters) Feb. 2017
                 K. A. Peterson, C. Puzzarini, Theor. Chem. Acc. 114, 283 (2005)

================================================================================
                                        WARNINGS
                       Please study these warnings very carefully!
================================================================================

WARNING: Old DensityContainer found on disk!
         Will remove this file - 
         If you want to keep old densities, please start your calculation with a different basename. 


WARNING: Gradients are needed
  ===> : At least TightSCF should be used for SCF convergence

WARNING: The frozen-core approximation for MP2-gradient calculations is turned on by default.

WARNING: Geometry Optimization
  ===> : Switching off AutoStart
         For restart on a previous wavefunction, please use MOREAD

================================================================================
                                       INPUT FILE
================================================================================
NAME = 2H2O.inp
|  1> 
|  2>     ! HF MP2 cc-pVTZ LooseSCF Opt PAL6
|  3>      
|  4>     * xyz 0 1
|  5>     O       0.000000     0.000000     0.000000 
|  6>     H       -0.886668    0.362746     0.000000
|  7>     H       -0.129187    -0.949250    0.000000
|  8> 
|  9>     O       2.800000     0.000000     0.000000
| 10>     H       3.686668     0.362746     0.000000
| 11>     H       2.929187     -0.949250     0.000000
| 12>     *
| 13> 
| 14>     %geom
| 15>         Constraints
| 16>             { B 0 1 C }  
| 17>             { B 0 2 C } 
| 18>             { B 3 4 C }
| 19>             { B 3 5 C }
| 20>             { A 1 0 2 C }
| 21>             { A 4 3 5 C }
| 22>             { A 1 0 3 C }
| 23>             { A 4 3 0 C }
| 24>         end
| 25>         Scan
| 26>             B 0 3 = 2.8, 5, 5  # Vary the O-O distance
| 27>         end
| 28>     end
| 29>  
| 30>     %mp2
| 31>         Density relaxed
| 32>     end
| 33> 
| 34>     %scf
| 35>         ConvForced true  # Ensure SCF convergence
| 36>     end
| 37> 
| 38>                               ****END OF INPUT****
================================================================================

                       ******************************
                       *    Relaxed Surface Scan    *
                       ******************************

                      Bond (  3,   0):   range=   2.80000000 ..   5.00000000  steps =    5

There is 1 parameter to be scanned.
There will be    5 constrained geometry optimizations.


         *************************************************************
         *               RELAXED SURFACE SCAN STEP   1               *
         *                                                           *
         *                 Bond (  3,   0)  :   2.80000000           *
         *************************************************************

Geometry optimization settings:
Update method            Update   .... BFGS
Choice of coordinates    CoordSys .... (2022) Redundant Internals
Initial Hessian          InHess   .... Almloef's Model
Max. no of cycles        MaxIter  .... 50

Convergence Tolerances:
Energy Change            TolE     ....  5.0000e-06 Eh
Max. Gradient            TolMAXG  ....  3.0000e-04 Eh/bohr
RMS Gradient             TolRMSG  ....  1.0000e-04 Eh/bohr
Max. Displacement        TolMAXD  ....  4.0000e-03 bohr
RMS Displacement         TolRMSD  ....  2.0000e-03 bohr
Strict Convergence                .... False

------------------------------------------------------------------------------
                        ORCA OPTIMIZATION COORDINATE SETUP
------------------------------------------------------------------------------

The optimization will be done in redundant internal coordinates (2022)
Making redundant internal coordinates   ...  (2022 redundants) done
Evaluating the initial hessian          ...  (Almloef) done
Evaluating the coordinates              ...  done
Calculating the B-matrix                .... done
Calculating the G-matrix                .... done
Diagonalizing the G-matrix              .... done
Will constrain atom 0 coordinate 1 
Will constrain atom 0 coordinate 2 
Will constrain atom 1 coordinate 1 
Will constrain atom 1 coordinate 2 
Will constrain atom 2 coordinate 1 
Will constrain atom 2 coordinate 2 
Will constrain atom 3 coordinate 1 
Will constrain atom 3 coordinate 2 
Will constrain atom 4 coordinate 1 
Will constrain atom 4 coordinate 2 
Will constrain atom 5 coordinate 1 
Will constrain atom 5 coordinate 2 
The first mode is                       ....    6
The number of degrees of freedom        ....   12
Storing new coordinates                 .... done

    -----------------------------------------------------------------
                    Redundant Internal Coordinates


    -----------------------------------------------------------------
         Definition                    Initial Value    Approx d2E/dq
    -----------------------------------------------------------------
      1. B(H   1,O   0)                  0.9580         0.523790 C 
      2. B(H   2,O   0)                  0.9580         0.523790 C 
      3. B(O   3,H   2)                  3.0792         0.000216   
      4. B(O   3,O   0)                  2.8000         0.002821 C 
      5. B(H   4,O   3)                  0.9580         0.523790 C 
      6. B(H   5,O   0)                  3.0792         0.000216   
      7. B(H   5,H   2)                  3.0584         0.000050   
      8. B(H   5,O   3)                  0.9580         0.523790 C 
      9. A(H   2,O   0,O   3)           97.7500         0.171391   
     10. A(H   1,O   0,O   3)          157.7500         0.171391 C 
     11. A(H   1,O   0,H   2)          104.5000         0.322609 C 
     12. A(H   4,O   3,H   5)          104.5000         0.322609 C 
     13. A(O   0,O   3,H   4)          157.7500         0.171391 C 
     14. A(O   0,O   3,H   5)           97.7500         0.171391   
     15. D(H   5,O   3,O   0,H   1)    180.0000         0.001501   
     16. D(H   5,O   3,O   0,H   2)      0.0000         0.001501   
     17. D(H   4,O   3,O   0,H   1)      0.0000         0.001501   
     18. D(H   4,O   3,O   0,H   2)    180.0000         0.001501   
    -----------------------------------------------------------------

Number of atoms                         .... 6
Number of degrees of freedom            .... 18


         *************************************************************
         *                GEOMETRY OPTIMIZATION CYCLE   1            *
         *************************************************************
---------------------------------
CARTESIAN COORDINATES (ANGSTROEM)
---------------------------------
  O      0.000000   -0.000000    0.000000
  H     -0.886668    0.362746   -0.000000
  H     -0.129187   -0.949250   -0.000000
  O      2.800000   -0.000000   -0.000000
  H      3.686668    0.362746    0.000000
  H      2.929187   -0.949250   -0.000000

----------------------------
CARTESIAN COORDINATES (A.U.)
----------------------------
  NO LB      ZA    FRAG     MASS         X           Y           Z
   0 O     8.0000    0    15.999    0.000000   -0.000000    0.000000
   1 H     1.0000    0     1.008   -1.675560    0.685491   -0.000000
   2 H     1.0000    0     1.008   -0.244128   -1.793823   -0.000000
   3 O     8.0000    0    15.999    5.291233   -0.000000   -0.000000
   4 H     1.0000    0     1.008    6.966793    0.685491    0.000000
   5 H     1.0000    0     1.008    5.535361   -1.793823   -0.000000

--------------------------------
INTERNAL COORDINATES (ANGSTROEM)
--------------------------------
 O      0   0   0     0.000000000000     0.00000000     0.00000000
 H      1   0   0     0.958000418967     0.00000000     0.00000000
 H      1   2   0     0.958000440224   104.50004523     0.00000000
 O      1   2   3     2.800000000000   157.74996989   180.00000085
 H      4   1   2     0.958000418967   157.74996989     0.00000000
 H      4   1   2     0.958000440224    97.74998488   180.00000000

---------------------------
INTERNAL COORDINATES (A.U.)
---------------------------
 O      0   0   0     0.000000000000     0.00000000     0.00000000
 H      1   0   0     1.810358428029     0.00000000     0.00000000
 H      1   2   0     1.810358468199   104.50004523     0.00000000
 O      1   2   3     5.291233174980   157.74996989   180.00000085
 H      4   1   2     1.810358428029   157.74996989     0.00000000
 H      4   1   2     1.810358468199    97.74998488   180.00000000

---------------------
BASIS SET INFORMATION
---------------------
There are 2 groups of distinct atoms

 Group   1 Type O   : 18s5p2d1f contracted to 4s3p2d1f pattern {8811/311/11/1}
 Group   2 Type H   : 5s2p1d contracted to 3s2p1d pattern {311/11/1}

Atom   0O    basis set group =>   1
Atom   1H    basis set group =>   2
Atom   2H    basis set group =>   2
Atom   3O    basis set group =>   1
Atom   4H    basis set group =>   2
Atom   5H    basis set group =>   2


           ************************************************************
           *        Program running with 6 parallel MPI-processes     *
           *              working on a common directory               *
           ************************************************************
------------------------------------------------------------------------------
                             ORCA STARTUP CALCULATIONS
------------------------------------------------------------------------------
------------------------------------------------------------------------------
                   ___                                                        
                  /   \      - P O W E R E D   B Y -                         
                 /     \                                                     
                 |  |  |   _    _      __       _____    __    __             
                 |  |  |  | |  | |    /  \     |  _  \  |  |  /  |          
                  \  \/   | |  | |   /    \    | | | |  |  | /  /          
                 / \  \   | |__| |  /  /\  \   | |_| |  |  |/  /          
                |  |  |   |  __  | /  /__\  \  |    /   |      \           
                |  |  |   | |  | | |   __   |  |    \   |  |\   \          
                \     /   | |  | | |  |  |  |  | |\  \  |  | \   \       
                 \___/    |_|  |_| |__|  |__|  |_| \__\ |__|  \__/        
                                                                              
                      - O R C A' S   B I G   F R I E N D -                    
                                      &                                       
                       - I N T E G R A L  F E E D E R -                       
                                                                              
 v1 FN, 2020, v2 2021, v3 2022-2024                                           
------------------------------------------------------------------------------


----------------------
SHARK INTEGRAL PACKAGE
----------------------

Number of atoms                             ...      6
Number of basis functions                   ...    128
Number of shells                            ...     56
Maximum angular momentum                    ...      3
Integral batch strategy                     ... SHARK/LIBINT Hybrid
RI-J (if used) integral strategy            ... SPLIT-RIJ (Revised 2003 algorithm where possible)
Printlevel                                  ...      1
Contraction scheme used                     ... PARTIAL GENERAL contraction
Prescreening option                         ... SCHWARTZ
   Thresh                                   ... 1.000e-09
   Tcut                                     ... 1.000e-10
   Tpresel                                  ... 1.000e-10 
Coulomb Range Separation                    ... NOT USED
Exchange Range Separation                   ... NOT USED
Multipole approximations                    ... NOT USED
Finite Nucleus Model                        ... NOT USED
CABS basis                                  ... NOT available
Auxiliary Coulomb fitting basis             ... NOT available
Auxiliary J/K fitting basis                 ... NOT available
Auxiliary Correlation fitting basis         ... NOT available
Auxiliary 'external' fitting basis          ... NOT available

Checking pre-screening integrals            ... done (  0.0 sec) Dimension = 56
Save PGC pre-screening integrals            ... done (  0.0 sec) Dimension = 56
Calculate PGC overlap integrals             ... done (  0.0 sec) Dimension = 44
Calculating pre-screening integrals (ORCA)  ... done (  0.0 sec) Dimension = 44
Check shell pair data                       ... done (  0.0 sec)
Shell pair information
Shell pair cut-off parameter TPreSel        ...   1.0e-10
Total number of shell pairs                 ...      1596
Shell pairs after pre-screening             ...      1335
Total number of primitive shell pairs       ...      2364
Primitive shell pairs kept                  ...      1809
          la=0 lb=0:    427 shell pairs
          la=1 lb=0:    390 shell pairs
          la=1 lb=1:     97 shell pairs
          la=2 lb=0:    200 shell pairs
          la=2 lb=1:     98 shell pairs
          la=2 lb=2:     30 shell pairs
          la=3 lb=0:     48 shell pairs
          la=3 lb=1:     26 shell pairs
          la=3 lb=2:     16 shell pairs
          la=3 lb=3:      3 shell pairs

Calculating one electron integrals          ... done (  0.0 sec)
Calculating Nuclear repulsion               ... done (  0.0 sec) ENN=     36.056455719898 Eh

Diagonalization of the overlap matrix:
Smallest eigenvalue                        ... 1.784e-03
Time for diagonalization                   ...    0.002 sec
Threshold for overlap eigenvalues          ... 1.000e-07
Number of eigenvalues below threshold      ... 0
Time for construction of square roots      ...    0.001 sec
Total time needed                          ...    0.003 sec

-------------------
DFT GRID GENERATION
-------------------

General Integration Accuracy     IntAcc      ... 4.388
Radial Grid Type                 RadialGrid  ... OptM3 with GC (2021)
Angular Grid (max. ang.)         AngularGrid ... 4 (Lebedev-302)
Angular grid pruning method      GridPruning ... 4 (adaptive)
Weight generation scheme         WeightScheme... mBecke (2022)
Basis function cutoff            BFCut       ... 1.0000e-10
Integration weight cutoff        WCut        ... 1.0000e-14
Partially contracted basis set               ... off
Rotationally invariant grid construction     ... off
Angular grids for H and He will be reduced by one unit

Total number of grid points                  ...    25476
Total number of batches                      ...      402
Average number of points per batch           ...       63
Average number of grid points per atom       ...     4246

---------------------
SHARK GRID GENERATION
---------------------

General Integration Accuracy     IntAcc      ... 4.388
Radial Grid Type                 RadialGrid  ... OptM3 with GC (2021)
Angular Grid (max. ang.)         AngularGrid ... 4 (Lebedev-302)
Angular grid pruning method      GridPruning ... 4 (adaptive)
Weight generation scheme         WeightScheme... mBecke (2022)
Basis function cutoff            BFCut       ... 1.0000e-10
Integration weight cutoff        WCut        ... 1.0000e-14
Partially contracted basis set               ... off
Rotationally invariant grid construction     ... off
Angular grids for H and He will be reduced by one unit
Steep s-basis detected: some atoms will have their radial
                        grid points doubled.

Total number of grid points                  ...    37944
Total number of batches                      ...      594
Average number of points per batch           ...       63
Average number of grid points per atom       ...     6324
Initializing property integral containers    ... done (  0.0 sec)

SHARK setup successfully completed in   0.4 seconds

Maximum memory used throughout the entire STARTUP-calculation: 17.5 MB


           ************************************************************
           *        Program running with 6 parallel MPI-processes     *
           *              working on a common directory               *
           ************************************************************
-------------------------------------------------------------------------------
                                 ORCA GUESS
                   Start orbitals & Density for SCF / CASSCF
-------------------------------------------------------------------------------

------------
SCF SETTINGS
------------
Hamiltonian:
 Ab initio Hamiltonian  Method          .... Hartree-Fock(GTOs)


General Settings:
 Integral files         IntName         .... 2H2O
 Hartree-Fock type      HFTyp           .... RHF
 Total Charge           Charge          ....    0
 Multiplicity           Mult            ....    1
 Number of Electrons    NEL             ....   20
 Basis Dimension        Dim             ....  116
 Nuclear Repulsion      ENuc            ....     36.0564557199 Eh

Convergence Acceleration:
 AO-DIIS                CNVDIIS         .... on
   Start iteration      DIISMaxIt       ....    12
   Startup error        DIISStart       ....  0.200000
   # of expansion vecs  DIISMaxEq       ....     5
   Bias factor          DIISBfac        ....   1.050
   Max. coefficient     DIISMaxC        ....  10.000
 MO-DIIS                CNVKDIIS        .... off
 Trust-Rad. Augm. Hess. CNVTRAH         .... auto
   Auto Start mean grad. ratio tolernc. ....  1.125000
   Auto Start start iteration           ....    50
   Auto Start num. interpolation iter.  ....    10
   Max. Number of Micro iterations      ....    24
   Max. Number of Macro iterations      .... Maxiter - #DIIS iter
   Number of Davidson start vectors     ....     2
   Converg. threshold    (grad. norm)   ....   1.000e-04
   Grad. Scal. Fac. for Micro threshold ....   0.100
   Minimum threshold for Micro iter.    ....   1.000e-02
   NR start threshold (gradient norm)   ....   1.000e-04
   Initial trust radius                 ....   0.400
   Minimum AH scaling param. (alpha)    ....   1.000
   Maximum AH scaling param. (alpha)    .... 1000.000
   Quad. conv. algorithm                .... NR
   White noise on init. David. guess    .... on
   Maximum white noise                  ....   0.010
   Pseudo random numbers                .... off
   Inactive MOs                         .... canonical
   Orbital update algorithm             .... Taylor
   Preconditioner                       .... Diag
   Full preconditioner red. dimension   ....   250
 SOSCF                  CNVSOSCF        .... on
   Start iteration      SOSCFMaxIt      ....   150
   Startup grad/error   SOSCFStart      ....  0.003300
   Hessian update       SOSCFHessUp     .... L-BFGS
 Level Shifting         CNVShift        .... on
   Level shift para.    LevelShift      ....    0.2500
   Turn off err/grad.   ShiftErr        ....    0.0010
 Zerner damping         CNVZerner       .... off
 Static damping         CNVDamp         .... on
   Fraction old density DampFac         ....    0.7000
   Max. Damping (<1)    DampMax         ....    0.9800
   Min. Damping (>=0)   DampMin         ....    0.0000
   Turn off err/grad.   DampErr         ....    0.1000

SCF Procedure:
 Maximum # iterations   MaxIter         ....   125
 SCF integral mode      SCFMode         .... Direct
   Integral package                     .... SHARK and LIBINT hybrid scheme
 Reset frequency        DirectResetFreq ....    20
 Integral Threshold     Thresh          ....  1.000e-09 Eh
 Primitive CutOff       TCut            ....  1.000e-10 Eh

Convergence Tolerance:
 Convergence Check Mode ConvCheckMode   .... Total+1el-Energy
 Convergence forced     ConvForced      .... 1
 Energy Change          TolE            ....  1.000e-05 Eh
 1-El. energy change                    ....  1.000e-02 Eh
 Orbital Gradient       TolG            ....  1.000e-04
 Orbital Rotation angle TolX            ....  1.000e-04
 DIIS Error             TolErr          ....  5.000e-04

------------------------------
INITIAL GUESS: MODEL POTENTIAL
------------------------------
Loading Hartree-Fock densities                     ... done
Calculating cut-offs                               ... done
Initializing the effective Hamiltonian             ... done
Setting up the integral package (SHARK)            ... done
Starting the Coulomb interaction                   ... done (   0.0 sec)
Making the grid                                    ... done (   0.0 sec)
Mapping shells                                     ... done
Starting the XC term evaluation                    ... done (   0.0 sec)
Transforming the Hamiltonian                       ... done (   0.0 sec)
Diagonalizing the Hamiltonian                      ... done (   0.0 sec)
Back transforming the eigenvectors                 ... done (   0.0 sec)
Now organizing SCF variables                       ... done
                      ------------------
                      INITIAL GUESS DONE (   0.0 sec)
                      ------------------
             **** ENERGY FILE WAS UPDATED (2H2O.en.tmp) ****
Finished Guess after   0.2 sec
Maximum memory used throughout the entire GUESS-calculation: 6.9 MB


           ************************************************************
           *        Program running with 6 parallel MPI-processes     *
           *              working on a common directory               *
           ************************************************************

-------------------------------------------------------------------------------------------
                                      ORCA LEAN-SCF
                              memory conserving SCF solver
-------------------------------------------------------------------------------------------

----------------------------------------D-I-I-S--------------------------------------------
Iteration    Energy (Eh)           Delta-E    RMSDP     MaxDP     DIISErr   Damp  Time(sec)
-------------------------------------------------------------------------------------------
               ***  Starting incremental Fock matrix formation  ***
    1    -151.8925965987094742     0.00e+00  1.88e-03  4.20e-02  3.91e-01  0.700   0.1
    2    -151.9773167750541916    -8.47e-02  1.31e-03  2.88e-02  2.31e-01  0.700   0.1
                               ***Turning on AO-DIIS***
    3    -152.0216920893842598    -4.44e-02  5.47e-04  1.12e-02  1.25e-01  0.700   0.1
    4    -152.0484685707699555    -2.68e-02  3.51e-04  7.95e-03  8.47e-02  0.700   0.1
    5    -152.0662676861410318    -1.78e-02  8.58e-04  1.88e-02  6.07e-02  0.000   0.1
    6    -152.1066050739799493    -4.03e-02  1.07e-04  1.80e-03  4.85e-03  0.000   0.1
                              *** Initializing SOSCF ***
---------------------------------------S-O-S-C-F--------------------------------------
Iteration    Energy (Eh)           Delta-E    RMSDP     MaxDP     MaxGrad    Time(sec)
--------------------------------------------------------------------------------------
    7    -152.1066797040761003    -7.46e-05  6.59e-05  9.80e-04  1.60e-03     0.1
               *** Restarting incremental Fock matrix formation ***
    8    -152.1066962959973239    -1.66e-05  2.89e-05  8.12e-04  4.20e-04     0.1
    9    -152.1066981064919901    -1.81e-06  1.88e-05  4.10e-04  1.64e-04     0.1
                 **** Energy Check signals convergence ****

               *****************************************************
               *                     SUCCESS                       *
               *           SCF CONVERGED AFTER   9 CYCLES          *
               *****************************************************

             **** ENERGY FILE WAS UPDATED (2H2O.en.tmp) ****

----------------
TOTAL SCF ENERGY
----------------

Total Energy       :       -152.10669810649199 Eh           -4139.03368 eV

Components:
Nuclear Repulsion  :         36.05645571989764 Eh             981.14604 eV
Electronic Energy  :       -188.16315382638962 Eh           -5120.17972 eV
One Electron Energy:       -281.91204851739985 Eh           -7671.21684 eV
Two Electron Energy:         93.74889469101024 Eh            2551.03712 eV

Virial components:
Potential Energy   :       -304.13466683286254 Eh           -8275.92502 eV
Kinetic Energy     :        152.02796872637057 Eh            4136.89134 eV
Virial Ratio       :          2.00051786115924

---------------
SCF CONVERGENCE
---------------

  Last Energy change         ...    1.8105e-06  Tolerance :   1.0000e-05
  Last MAX-Density change    ...    4.1008e-04  Tolerance :   1.0000e-03
  Last RMS-Density change    ...    1.8814e-05  Tolerance :   1.0000e-04
  Last DIIS Error            ...    1.6016e-03  Tolerance :   5.0000e-04
  Last Orbital Gradient      ...    1.6358e-04  Tolerance :   1.0000e-04
  Last Orbital Rotation      ...    4.0596e-04  Tolerance :   1.0000e-04


----------------
ORBITAL ENERGIES
----------------

  NO   OCC          E(Eh)            E(eV) 
   0   2.0000     -20.537754      -558.8607 
   1   2.0000     -20.537751      -558.8606 
   2   2.0000      -1.330590       -36.2072 
   3   2.0000      -1.326384       -36.0928 
   4   2.0000      -0.697100       -18.9691 
   5   2.0000      -0.688927       -18.7467 
   6   2.0000      -0.573659       -15.6100 
   7   2.0000      -0.540930       -14.7195 
   8   2.0000      -0.490859       -13.3570 
   9   2.0000      -0.483175       -13.1479 
  10   0.0000       0.141065         3.8386 
  11   0.0000       0.169235         4.6051 
  12   0.0000       0.203060         5.5255 
  13   0.0000       0.232949         6.3389 
  14   0.0000       0.524648        14.2764 
  15   0.0000       0.601501        16.3677 
  16   0.0000       0.617982        16.8161 
  17   0.0000       0.618573        16.8322 
  18   0.0000       0.673218        18.3192 
  19   0.0000       0.764998        20.8167 
  20   0.0000       0.768334        20.9074 
*Only the first 10 virtual orbitals were printed.

                    ********************************
                    * MULLIKEN POPULATION ANALYSIS *
                    ********************************

-----------------------
MULLIKEN ATOMIC CHARGES
-----------------------
   0 O :   -0.436989
   1 H :    0.216586
   2 H :    0.220403
   3 O :   -0.436989
   4 H :    0.216586
   5 H :    0.220403
Sum of atomic charges:   -0.0000000

--------------------------------
MULLIKEN REDUCED ORBITAL CHARGES
--------------------------------
  0 O s       :     3.794115  s :     3.794115
      pz      :     1.920261  p :     4.622319
      px      :     1.420970
      py      :     1.281088
      dz2     :     0.004091  d :     0.019663
      dxz     :     0.001554
      dyz     :     0.000498
      dx2y2   :     0.009886
      dxy     :     0.003634
      f0      :     0.000116  f :     0.000892
      f+1     :     0.000225
      f-1     :     0.000283
      f+2     :     0.000003
      f-2     :     0.000008
      f+3     :    -0.000027
      f-3     :     0.000284

  1 H s       :     0.694700  s :     0.694700
      pz      :     0.035564  p :     0.081588
      px      :     0.022149
      py      :     0.023875
      dz2     :     0.000548  d :     0.007126
      dxz     :     0.002471
      dyz     :     0.000508
      dx2y2   :     0.002048
      dxy     :     0.001551

  2 H s       :     0.686223  s :     0.686223
      pz      :     0.035974  p :     0.086106
      px      :     0.028629
      py      :     0.021503
      dz2     :     0.000533  d :     0.007268
      dxz     :     0.000031
      dyz     :     0.003011
      dx2y2   :     0.001356
      dxy     :     0.002338

  3 O s       :     3.794115  s :     3.794115
      pz      :     1.920261  p :     4.622319
      px      :     1.420970
      py      :     1.281088
      dz2     :     0.004091  d :     0.019663
      dxz     :     0.001554
      dyz     :     0.000498
      dx2y2   :     0.009886
      dxy     :     0.003634
      f0      :     0.000116  f :     0.000892
      f+1     :     0.000225
      f-1     :     0.000283
      f+2     :     0.000003
      f-2     :     0.000008
      f+3     :    -0.000027
      f-3     :     0.000284

  4 H s       :     0.694700  s :     0.694700
      pz      :     0.035564  p :     0.081588
      px      :     0.022149
      py      :     0.023875
      dz2     :     0.000548  d :     0.007126
      dxz     :     0.002471
      dyz     :     0.000508
      dx2y2   :     0.002048
      dxy     :     0.001551

  5 H s       :     0.686223  s :     0.686223
      pz      :     0.035974  p :     0.086106
      px      :     0.028629
      py      :     0.021503
      dz2     :     0.000533  d :     0.007268
      dxz     :     0.000031
      dyz     :     0.003011
      dx2y2   :     0.001356
      dxy     :     0.002338



                     *******************************
                     * LOEWDIN POPULATION ANALYSIS *
                     *******************************

----------------------
LOEWDIN ATOMIC CHARGES
----------------------
   0 O :    0.381589
   1 H :   -0.190664
   2 H :   -0.190925
   3 O :    0.381589
   4 H :   -0.190664
   5 H :   -0.190925

-------------------------------
LOEWDIN REDUCED ORBITAL CHARGES
-------------------------------
  0 O s       :     3.174938  s :     3.174938
      pz      :     1.685282  p :     4.400315
      px      :     1.426505
      py      :     1.288528
      dz2     :     0.007151  d :     0.039903
      dxz     :     0.000489
      dyz     :     0.000160
      dx2y2   :     0.022370
      dxy     :     0.009733
      f0      :     0.000455  f :     0.003255
      f+1     :     0.000198
      f-1     :     0.000330
      f+2     :     0.000011
      f-2     :     0.000034
      f+3     :     0.000871
      f-3     :     0.001356

  1 H s       :     0.721459  s :     0.721459
      pz      :     0.117893  p :     0.368702
      px      :     0.171321
      py      :     0.079487
      dz2     :     0.007427  d :     0.100504
      dxz     :     0.032869
      dyz     :     0.005938
      dx2y2   :     0.032047
      dxy     :     0.022223

  2 H s       :     0.721870  s :     0.721870
      pz      :     0.118080  p :     0.368497
      px      :     0.091124
      py      :     0.159292
      dz2     :     0.007425  d :     0.100557
      dxz     :     0.000572
      dyz     :     0.038217
      dx2y2   :     0.021960
      dxy     :     0.032383

  3 O s       :     3.174938  s :     3.174938
      pz      :     1.685282  p :     4.400315
      px      :     1.426505
      py      :     1.288528
      dz2     :     0.007151  d :     0.039903
      dxz     :     0.000489
      dyz     :     0.000160
      dx2y2   :     0.022370
      dxy     :     0.009733
      f0      :     0.000455  f :     0.003255
      f+1     :     0.000198
      f-1     :     0.000330
      f+2     :     0.000011
      f-2     :     0.000034
      f+3     :     0.000871
      f-3     :     0.001356

  4 H s       :     0.721459  s :     0.721459
      pz      :     0.117893  p :     0.368702
      px      :     0.171321
      py      :     0.079487
      dz2     :     0.007427  d :     0.100504
      dxz     :     0.032869
      dyz     :     0.005938
      dx2y2   :     0.032047
      dxy     :     0.022223

  5 H s       :     0.721870  s :     0.721870
      pz      :     0.118080  p :     0.368497
      px      :     0.091124
      py      :     0.159292
      dz2     :     0.007425  d :     0.100557
      dxz     :     0.000572
      dyz     :     0.038217
      dx2y2   :     0.021960
      dxy     :     0.032383



                      *****************************
                      * MAYER POPULATION ANALYSIS *
                      *****************************

  NA   - Mulliken gross atomic population
  ZA   - Total nuclear charge
  QA   - Mulliken gross atomic charge
  VA   - Mayer's total valence
  BVA  - Mayer's bonded valence
  FA   - Mayer's free valence

  ATOM       NA         ZA         QA         VA         BVA        FA
  0 O      8.4370     8.0000    -0.4370     2.0115     2.0115    -0.0000
  1 H      0.7834     1.0000     0.2166     1.0182     1.0182     0.0000
  2 H      0.7796     1.0000     0.2204     1.0265     1.0265    -0.0000
  3 O      8.4370     8.0000    -0.4370     2.0115     2.0115    -0.0000
  4 H      0.7834     1.0000     0.2166     1.0182     1.0182     0.0000
  5 H      0.7796     1.0000     0.2204     1.0265     1.0265     0.0000

  Mayer bond orders larger than 0.100000
B(  0-O ,  1-H ) :   0.9990 B(  0-O ,  2-H ) :   1.0059 B(  3-O ,  4-H ) :   0.9990 
B(  3-O ,  5-H ) :   1.0059 

-------
TIMINGS
-------

Total SCF time: 0 days 0 hours 0 min 0 sec 

Total time                  ....       0.825 sec
Sum of individual times     ....       0.819 sec  ( 99.2%)

SCF preparation             ....       0.107 sec  ( 12.9%)
Fock matrix formation       ....       0.648 sec  ( 78.5%)
  Startup                   ....       0.002 sec  (  0.4% of F)
  Coulomb+Exchange Fock     ....       0.640 sec  ( 98.8% of F)
Diagonalization             ....       0.000 sec  (  0.0%)
Density matrix formation    ....       0.005 sec  (  0.6%)
Total Energy calculation    ....       0.005 sec  (  0.6%)
Population analysis         ....       0.006 sec  (  0.7%)
Orbital Transformation      ....       0.006 sec  (  0.7%)
Orbital Orthonormalization  ....       0.000 sec  (  0.0%)
DIIS solution               ....       0.034 sec  (  4.2%)
SOSCF solution              ....       0.008 sec  (  1.0%)
Finished LeanSCF after   0.8 sec

Maximum memory used throughout the entire LEANSCF-calculation: 11.2 MB


           ************************************************************
           *        Program running with 6 parallel MPI-processes     *
           *              working on a common directory               *
           ************************************************************

------------------------------------------------------------------------------
                                ORCA  MP2 
------------------------------------------------------------------------------

NOTE: Switching SHARK to Segmented Contraction for MP2
      If that is not desired please turn off the PGCFlag in the input (%shark PGCFlag 0 end)
      Number of basis functions in BAS before restore: 128
      Number of basis functions in BAS after restore : 116
Freezing NCore=4 chemical core electrons
MP2 will be done in the AO integral direct mode
The Q1-step will be done using symmetric double matrices
Dimension of the basis                    ...  116
Memory devoted for MP2                    ... 4096 MB   
Memory needed for all in one shot         ...   13 MB
Number of MOs that can be treated together...  681      
MP2 density construction                  ... relaxed
The MP2 gradient is requested => amplitudes will be stored on disk
Total number of MOs              ...    8
Number of MOs treated per batch  ...    2 
Number of batches necessary      ...    1 
OPERATORS   0/  0 PASS   2
OPERATORS   0/  0 PASS   4
OPERATORS   0/  0 PASS   3
OPERATORS   0/  0 PASS   5
OPERATORS   0/  0 PASS   1
OPERATORS   0/  0 PASS   0
-----------------------------------------------
 MP2 CORRELATION ENERGY   :     -0.525064757 Eh
-----------------------------------------------


---------------------
MP2 DENSITY FORMATION
---------------------

Completing the external part of the density      ... done
Storing the unrelaxed density                    ... done

Calculating G(D)                                 ... done
Completing the Lagrangian                        ... done
Solving the Z-vector equations                   ... 
-------------------
SHARK CP-SCF DRIVER
-------------------

Dimension of the orbital basis          ...    116
Dimension of the CPSCF-problem          ...   1060
Number of operators                     ...      1
Max. number of iterations               ...    128
Convergence Tolerance                   ... 3.0e-03
Number of perturbations                 ...      1
Perturbation type                       ... REAL

----------------------------
POPLE LINEAR EQUATION SOLVER
----------------------------

  ITERATION   0:   ||err||_max =   2.6067e-02 (   0.1 sec)
  ITERATION   1:   ||err||_max =   9.5334e-03 (   0.1 sec)
  ITERATION   2:   ||err||_max =   1.7051e-03 (   0.1 sec)
                                                 ... done
Finalizing the relaxed density                   ... done
Transforming P to the AO basis                   ... done
Storing the relaxed density                      ... done

------------------------------------
ENERGY WEIGHTED DENSITY FINALIZATION
------------------------------------

Gathering the parts of the W-matrix              ...                                                      done
Forming the Z-density                            ... done
Transforming Z to the AO basis                   ... done
Calculating G(Z)                                 ... done
Finalizing the W-matrix                          ...                                                      done
Transforming W to the AO basis and storing       ... done

                *********************************************
                * UNRELAXED MP2 DENSITY POPULATION ANALYSIS *
                *********************************************

------------------------------------------------------------------------------
                           ORCA POPULATION ANALYSIS
------------------------------------------------------------------------------
Input electron density              ... 2H2O.pmp2ur
BaseName (.gbw .S,...)              ... 2H2O

                    ********************************
                    * MULLIKEN POPULATION ANALYSIS *
                    ********************************

-----------------------
MULLIKEN ATOMIC CHARGES
-----------------------
   0 O :   -0.427939
   1 H :    0.212084
   2 H :    0.215855
   3 O :   -0.427939
   4 H :    0.212084
   5 H :    0.215855
Sum of atomic charges:   -0.0000000

--------------------------------
MULLIKEN REDUCED ORBITAL CHARGES
--------------------------------
  0 O s       :     3.788391  s :     3.788391
      pz      :     1.907030  p :     4.591790
      px      :     1.411145
      py      :     1.273616
      dz2     :     0.009119  d :     0.044410
      dxz     :     0.006890
      dyz     :     0.005833
      dx2y2   :     0.014236
      dxy     :     0.008333
      f0      :     0.000463  f :     0.003348
      f+1     :     0.000575
      f-1     :     0.000628
      f+2     :     0.000358
      f-2     :     0.000361
      f+3     :     0.000331
      f-3     :     0.000633
  1 H s       :     0.696455  s :     0.696455
      pz      :     0.037322  p :     0.083962
      px      :     0.021753
      py      :     0.024887
      dz2     :     0.000640  d :     0.007499
      dxz     :     0.002534
      dyz     :     0.000627
      dx2y2   :     0.002110
      dxy     :     0.001589
  2 H s       :     0.687740  s :     0.687740
      pz      :     0.037736  p :     0.088744
      px      :     0.030157
      py      :     0.020851
      dz2     :     0.000628  d :     0.007661
      dxz     :     0.000152
      dyz     :     0.003071
      dx2y2   :     0.001397
      dxy     :     0.002413
  3 O s       :     3.788391  s :     3.788391
      pz      :     1.907030  p :     4.591790
      px      :     1.411145
      py      :     1.273616
      dz2     :     0.009119  d :     0.044410
      dxz     :     0.006890
      dyz     :     0.005833
      dx2y2   :     0.014236
      dxy     :     0.008333
      f0      :     0.000463  f :     0.003348
      f+1     :     0.000575
      f-1     :     0.000628
      f+2     :     0.000358
      f-2     :     0.000361
      f+3     :     0.000331
      f-3     :     0.000633
  4 H s       :     0.696455  s :     0.696455
      pz      :     0.037322  p :     0.083962
      px      :     0.021753
      py      :     0.024887
      dz2     :     0.000640  d :     0.007499
      dxz     :     0.002534
      dyz     :     0.000627
      dx2y2   :     0.002110
      dxy     :     0.001589
  5 H s       :     0.687740  s :     0.687740
      pz      :     0.037736  p :     0.088744
      px      :     0.030157
      py      :     0.020851
      dz2     :     0.000628  d :     0.007661
      dxz     :     0.000152
      dyz     :     0.003071
      dx2y2   :     0.001397
      dxy     :     0.002413


                     *******************************
                     * LOEWDIN POPULATION ANALYSIS *
                     *******************************

----------------------
LOEWDIN ATOMIC CHARGES
----------------------
   0 O :    0.386350
   1 H :   -0.193030
   2 H :   -0.193320
   3 O :    0.386350
   4 H :   -0.193030
   5 H :   -0.193320

-------------------------------
LOEWDIN REDUCED ORBITAL CHARGES
-------------------------------
  0 O s       :     3.171666  s :     3.171666
      pz      :     1.674746  p :     4.370642
      px      :     1.416212
      py      :     1.279684
      dz2     :     0.012932  d :     0.065402
      dxz     :     0.005518
      dyz     :     0.005058
      dx2y2   :     0.027565
      dxy     :     0.014329
      f0      :     0.000811  f :     0.005940
      f+1     :     0.000599
      f-1     :     0.000734
      f+2     :     0.000370
      f-2     :     0.000383
      f+3     :     0.001244
      f-3     :     0.001799
  1 H s       :     0.718771  s :     0.718771
      pz      :     0.119008  p :     0.372778
      px      :     0.173479
      py      :     0.080292
      dz2     :     0.007845  d :     0.101481
      dxz     :     0.032620
      dyz     :     0.006033
      dx2y2   :     0.032340
      dxy     :     0.022644
  2 H s       :     0.719198  s :     0.719198
      pz      :     0.119194  p :     0.372592
      px      :     0.092067
      py      :     0.161331
      dz2     :     0.007843  d :     0.101530
      dxz     :     0.000745
      dyz     :     0.037889
      dx2y2   :     0.022805
      dxy     :     0.032248
  3 O s       :     3.171666  s :     3.171666
      pz      :     1.674746  p :     4.370642
      px      :     1.416212
      py      :     1.279684
      dz2     :     0.012932  d :     0.065402
      dxz     :     0.005518
      dyz     :     0.005058
      dx2y2   :     0.027565
      dxy     :     0.014329
      f0      :     0.000811  f :     0.005940
      f+1     :     0.000599
      f-1     :     0.000734
      f+2     :     0.000370
      f-2     :     0.000383
      f+3     :     0.001244
      f-3     :     0.001799
  4 H s       :     0.718771  s :     0.718771
      pz      :     0.119008  p :     0.372778
      px      :     0.173479
      py      :     0.080292
      dz2     :     0.007845  d :     0.101481
      dxz     :     0.032620
      dyz     :     0.006033
      dx2y2   :     0.032340
      dxy     :     0.022644
  5 H s       :     0.719198  s :     0.719198
      pz      :     0.119194  p :     0.372592
      px      :     0.092067
      py      :     0.161331
      dz2     :     0.007843  d :     0.101530
      dxz     :     0.000745
      dyz     :     0.037889
      dx2y2   :     0.022805
      dxy     :     0.032248


                      *****************************
                      * MAYER POPULATION ANALYSIS *
                      *****************************

  NA   - Mulliken gross atomic population
  ZA   - Total nuclear charge
  QA   - Mulliken gross atomic charge
  VA   - Mayer's total valence
  BVA  - Mayer's bonded valence
  FA   - Mayer's free valence

  ATOM       NA         ZA         QA         VA         BVA        FA
  0 O      8.4279     8.0000    -0.4279     2.2710     1.9128     0.3582
  1 H      0.7879     1.0000     0.2121     1.0283     0.9676     0.0607
  2 H      0.7841     1.0000     0.2159     1.0370     0.9769     0.0602
  3 O      8.4279     8.0000    -0.4279     2.2710     1.9128     0.3582
  4 H      0.7879     1.0000     0.2121     1.0283     0.9676     0.0607
  5 H      0.7841     1.0000     0.2159     1.0370     0.9769     0.0602

  Mayer bond orders larger than 0.100000
B(  0-O ,  1-H ) :   0.9493 B(  0-O ,  2-H ) :   0.9571 B(  3-O ,  4-H ) :   0.9493 
B(  3-O ,  5-H ) :   0.9571 


                *******************************************
                * RELAXED MP2 DENSITY POPULATION ANALYSIS *
                *******************************************

------------------------------------------------------------------------------
                           ORCA POPULATION ANALYSIS
------------------------------------------------------------------------------
Input electron density              ... 2H2O.pmp2re
BaseName (.gbw .S,...)              ... 2H2O

                    ********************************
                    * MULLIKEN POPULATION ANALYSIS *
                    ********************************

-----------------------
MULLIKEN ATOMIC CHARGES
-----------------------
   0 O :   -0.427848
   1 H :    0.212903
   2 H :    0.214944
   3 O :   -0.427848
   4 H :    0.212903
   5 H :    0.214944
Sum of atomic charges:   -0.0000000

--------------------------------
MULLIKEN REDUCED ORBITAL CHARGES
--------------------------------
  0 O s       :     3.797595  s :     3.797595
      pz      :     1.896842  p :     4.583652
      px      :     1.406051
      py      :     1.280760
      dz2     :     0.008934  d :     0.043238
      dxz     :     0.007020
      dyz     :     0.005878
      dx2y2   :     0.013248
      dxy     :     0.008159
      f0      :     0.000471  f :     0.003362
      f+1     :     0.000577
      f-1     :     0.000637
      f+2     :     0.000358
      f-2     :     0.000361
      f+3     :     0.000329
      f-3     :     0.000630
  1 H s       :     0.691080  s :     0.691080
      pz      :     0.042516  p :     0.089046
      px      :     0.020056
      py      :     0.026475
      dz2     :     0.000581  d :     0.006970
      dxz     :     0.002354
      dyz     :     0.000623
      dx2y2   :     0.001882
      dxy     :     0.001530
  2 H s       :     0.681613  s :     0.681613
      pz      :     0.042922  p :     0.096254
      px      :     0.034323
      py      :     0.019009
      dz2     :     0.000581  d :     0.007189
      dxz     :     0.000142
      dyz     :     0.002889
      dx2y2   :     0.001212
      dxy     :     0.002365
  3 O s       :     3.797595  s :     3.797595
      pz      :     1.896842  p :     4.583652
      px      :     1.406051
      py      :     1.280760
      dz2     :     0.008934  d :     0.043238
      dxz     :     0.007020
      dyz     :     0.005878
      dx2y2   :     0.013248
      dxy     :     0.008159
      f0      :     0.000471  f :     0.003362
      f+1     :     0.000577
      f-1     :     0.000637
      f+2     :     0.000358
      f-2     :     0.000361
      f+3     :     0.000329
      f-3     :     0.000630
  4 H s       :     0.691080  s :     0.691080
      pz      :     0.042516  p :     0.089046
      px      :     0.020056
      py      :     0.026475
      dz2     :     0.000581  d :     0.006970
      dxz     :     0.002354
      dyz     :     0.000623
      dx2y2   :     0.001882
      dxy     :     0.001530
  5 H s       :     0.681613  s :     0.681613
      pz      :     0.042922  p :     0.096254
      px      :     0.034323
      py      :     0.019009
      dz2     :     0.000581  d :     0.007189
      dxz     :     0.000142
      dyz     :     0.002889
      dx2y2   :     0.001212
      dxy     :     0.002365


                     *******************************
                     * LOEWDIN POPULATION ANALYSIS *
                     *******************************

----------------------
LOEWDIN ATOMIC CHARGES
----------------------
   0 O :    0.392384
   1 H :   -0.195918
   2 H :   -0.196466
   3 O :    0.392384
   4 H :   -0.195918
   5 H :   -0.196466

-------------------------------
LOEWDIN REDUCED ORBITAL CHARGES
-------------------------------
  0 O s       :     3.173011  s :     3.173011
      pz      :     1.668052  p :     4.365422
      px      :     1.414050
      py      :     1.283320
      dz2     :     0.012693  d :     0.063282
      dxz     :     0.005424
      dyz     :     0.005023
      dx2y2   :     0.026485
      dxy     :     0.013657
      f0      :     0.000772  f :     0.005901
      f+1     :     0.000607
      f-1     :     0.000744
      f+2     :     0.000370
      f-2     :     0.000381
      f+3     :     0.001223
      f-3     :     0.001804
  1 H s       :     0.716039  s :     0.716039
      pz      :     0.123681  p :     0.379639
      px      :     0.175262
      py      :     0.080696
      dz2     :     0.008005  d :     0.100240
      dxz     :     0.031505
      dyz     :     0.005901
      dx2y2   :     0.032245
      dxy     :     0.022585
  2 H s       :     0.716622  s :     0.716622
      pz      :     0.123878  p :     0.379592
      px      :     0.094722
      py      :     0.160992
      dz2     :     0.008000  d :     0.100252
      dxz     :     0.000708
      dyz     :     0.036680
      dx2y2   :     0.023168
      dxy     :     0.031696
  3 O s       :     3.173011  s :     3.173011
      pz      :     1.668052  p :     4.365422
      px      :     1.414050
      py      :     1.283320
      dz2     :     0.012693  d :     0.063282
      dxz     :     0.005424
      dyz     :     0.005023
      dx2y2   :     0.026485
      dxy     :     0.013657
      f0      :     0.000772  f :     0.005901
      f+1     :     0.000607
      f-1     :     0.000744
      f+2     :     0.000370
      f-2     :     0.000381
      f+3     :     0.001223
      f-3     :     0.001804
  4 H s       :     0.716039  s :     0.716039
      pz      :     0.123681  p :     0.379639
      px      :     0.175262
      py      :     0.080696
      dz2     :     0.008005  d :     0.100240
      dxz     :     0.031505
      dyz     :     0.005901
      dx2y2   :     0.032245
      dxy     :     0.022585
  5 H s       :     0.716622  s :     0.716622
      pz      :     0.123878  p :     0.379592
      px      :     0.094722
      py      :     0.160992
      dz2     :     0.008000  d :     0.100252
      dxz     :     0.000708
      dyz     :     0.036680
      dx2y2   :     0.023168
      dxy     :     0.031696


                      *****************************
                      * MAYER POPULATION ANALYSIS *
                      *****************************

  NA   - Mulliken gross atomic population
  ZA   - Total nuclear charge
  QA   - Mulliken gross atomic charge
  VA   - Mayer's total valence
  BVA  - Mayer's bonded valence
  FA   - Mayer's free valence

  ATOM       NA         ZA         QA         VA         BVA        FA
  0 O      8.4278     8.0000    -0.4278     2.2912     1.9360     0.3552
  1 H      0.7871     1.0000     0.2129     1.0371     0.9767     0.0604
  2 H      0.7851     1.0000     0.2149     1.0511     0.9914     0.0597
  3 O      8.4278     8.0000    -0.4278     2.2912     1.9360     0.3552
  4 H      0.7871     1.0000     0.2129     1.0371     0.9767     0.0604
  5 H      0.7851     1.0000     0.2149     1.0511     0.9914     0.0597

  Mayer bond orders larger than 0.100000
B(  0-O ,  1-H ) :   0.9549 B(  0-O ,  2-H ) :   0.9679 B(  3-O ,  4-H ) :   0.9549 
B(  3-O ,  5-H ) :   0.9679 


----------------------------------
MP2 DERIVATIVE INTEGRAL GENERATION
----------------------------------

Input SCF Electron Density              ... 2H2O.scfp
Input Correlated Electron Density       ... 2H2O.pmp2re
Input Energy Weighted Density           ... 2H2O.wmp2.tmp
Input Wavefunction Amplitudes           ... 2H2O.mp2tsaa.tmp

Nuclear repulsion gradient              ... done (  0.0 sec)
HCore & Overlap gradient  (SHARK)       ... done (  0.0 sec)
Analytic two-electron gradient terms    ... 
  Batch handling in the gradient evaluation:
  General contraction                   ... not used
  Memory available                      ... 4089.8 MB
  Memory per occupied orbital in Q2     ...    0.8 MB
  Memory per occupied orbital in Q3     ...    0.0 MB
  Total memory requirement per |i>      ...    0.9 MB
  Number of orbitals treated per batch  ...      8
  Number of batches to be done          ...      1
done (  0.5 sec)

---------------------------------------
MP2 TOTAL ENERGY:     -152.631762864 Eh
---------------------------------------

The final MP2 gradient
  0:   0.00088404  -0.00220269  -0.00000000
  1:   0.00229423   0.00197546   0.00000000
  2:   0.00210525   0.00022729   0.00000000
  3:  -0.00088371  -0.00220268  -0.00000000
  4:  -0.00229476   0.00197507   0.00000000
  5:  -0.00210505   0.00022756   0.00000000

-----------------------------------
NORM OF THE MP2 GRADIENT:  0.006210
-----------------------------------

Maximum memory used throughout the entire MP2-calculation: 39.1 MB

-------------------------   --------------------
FINAL SINGLE POINT ENERGY      -152.631762863955
-------------------------   --------------------

------------------------------------------------------------------------------
                         ORCA GEOMETRY RELAXATION STEP
------------------------------------------------------------------------------

Reading the OPT-File                    .... done
Getting information on internals        .... done
Copying old internal coords+grads       .... done
Making the new internal coordinates     .... (2022 redundants) done
Validating the new internal coordinates .... (2022 redundants) done
Calculating the B-matrix                .... done
Calculating the G,G- and P matrices     .... done
Transforming gradient to internals      .... done
Projecting the internal gradient        .... done
Number of atoms                         ....   6
Number of internal coordinates          ....  18
Current Energy                          ....  -152.631762864 Eh
Current gradient norm                   ....     0.006210126 Eh/bohr
Maximum allowed component of the step   ....  0.300
Current trust radius                    ....  0.300
Evaluating the initial hessian          ....  (Almloef) done
Projecting the Hessian                  .... done
Forming the augmented Hessian           .... done
Diagonalizing the augmented Hessian     .... done
Last element of RFO vector              ....  1.000000000
Lowest eigenvalues of augmented Hessian:
 -0.000000000  0.001500781  0.001500781  0.001500781 1000.000000000
Length of the computed step             ....  0.000000002
The final length of the internal step   ....  0.000000002
Converting the step to Cartesian space:
 Initial RMS(Int)=    0.0000000005
Transforming coordinates:
 Iter   0:  RMS(Cart)=    0.0000000002 RMS(Int)=    1.4809609790
Imposing constraints:
 Iter   0:  RMS(Cart)=    0.0000000009 RMS(Int)=    0.0000000012
CONVERGED
done
Storing new coordinates                 .... done

                                .--------------------.
          ----------------------|Geometry convergence|-------------------------
          Item                value                   Tolerance       Converged
          ---------------------------------------------------------------------
          RMS gradient        0.0000000000            0.0001000000      YES
          MAX gradient        0.0000000000            0.0003000000      YES
          RMS step            0.0000000005            0.0020000000      YES
          MAX step            0.0000000018            0.0040000000      YES
          ........................................................
          Max(Bonds)      0.0000      Max(Angles)    0.00
          Max(Dihed)        0.00      Max(Improp)    0.00
          ---------------------------------------------------------------------

                    ***********************HURRAY********************
                    ***        THE OPTIMIZATION HAS CONVERGED     ***
                    *************************************************


    ---------------------------------------------------------------------------
                         Redundant Internal Coordinates

                          --- Optimized Parameters ---  
                            (Angstroem and degrees)

        Definition                    OldVal   dE/dq     Step     FinalVal
    ----------------------------------------------------------------------------
     1. B(H   1,O   0)                0.9580 -0.001375 -0.0000    0.9580 C 
     2. B(H   2,O   0)                0.9580  0.000082  0.0000    0.9580 C 
     3. B(O   3,H   2)                3.0792 -0.001334  0.0000    3.0792   
     4. B(O   3,O   0)                2.8000 -0.002653  0.0000    2.8000 C 
     5. B(H   4,O   3)                0.9580 -0.001376 -0.0000    0.9580 C 
     6. B(H   5,O   0)                3.0792 -0.001334  0.0000    3.0792   
     7. B(H   5,H   2)                3.0584 -0.000092  0.0000    3.0584   
     8. B(H   5,O   3)                0.9580  0.000082  0.0000    0.9580 C 
     9. A(H   2,O   0,O   3)           97.75  0.000708    0.00     97.75   
    10. A(H   1,O   0,O   3)          157.75 -0.002795   -0.00    157.75 C 
    11. A(H   1,O   0,H   2)          104.50  0.002087   -0.00    104.50 C 
    12. A(H   4,O   3,H   5)          104.50  0.002087   -0.00    104.50 C 
    13. A(O   0,O   3,H   4)          157.75 -0.002795    0.00    157.75 C 
    14. A(O   0,O   3,H   5)           97.75  0.000708   -0.00     97.75   
    15. D(H   5,O   3,O   0,H   1)    180.00 -0.000000    0.00    180.00   
    16. D(H   5,O   3,O   0,H   2)      0.00 -0.000000    0.00      0.00   
    17. D(H   4,O   3,O   0,H   1)      0.00 -0.000000    0.00      0.00   
    18. D(H   4,O   3,O   0,H   2)    180.00  0.000000   -0.00    180.00   
    ----------------------------------------------------------------------------

Geometry step timings:
Preparation and reading OPT file:      0.000 s (10.729 %)
Internal coordinates            :      0.000 s ( 4.251 %)
B/P matrices and projection     :      0.000 s (22.470 %)
Hessian update/contruction      :      0.000 s (12.348 %)
Making the step                 :      0.000 s ( 9.717 %)
Converting the step to Cartesian:      0.000 s ( 5.466 %)
Storing new data                :      0.000 s ( 2.429 %)
Checking convergence            :      0.000 s ( 0.202 %)
Final printing                  :      0.000 s (32.186 %)
Total time                      :      0.000 s
                 *******************************************************
                 *** FINAL ENERGY EVALUATION AT THE STATIONARY POINT ***
                 ***               (AFTER    1 CYCLES)               ***
                 *******************************************************
---------------------------------
CARTESIAN COORDINATES (ANGSTROEM)
---------------------------------
  O      0.000000   -0.000000    0.000000
  H     -0.886668    0.362746   -0.000000
  H     -0.129187   -0.949250    0.000000
  O      2.800000   -0.000000    0.000000
  H      3.686668    0.362746   -0.000000
  H      2.929187   -0.949250   -0.000000

----------------------------
CARTESIAN COORDINATES (A.U.)
----------------------------
  NO LB      ZA    FRAG     MASS         X           Y           Z
   0 O     8.0000    0    15.999    0.000000   -0.000000    0.000000
   1 H     1.0000    0     1.008   -1.675560    0.685491   -0.000000
   2 H     1.0000    0     1.008   -0.244128   -1.793823    0.000000
   3 O     8.0000    0    15.999    5.291233   -0.000000    0.000000
   4 H     1.0000    0     1.008    6.966793    0.685491   -0.000000
   5 H     1.0000    0     1.008    5.535361   -1.793823   -0.000000

--------------------------------
INTERNAL COORDINATES (ANGSTROEM)
--------------------------------
 O      0   0   0     0.000000000000     0.00000000     0.00000000
 H      1   0   0     0.958000420010     0.00000000     0.00000000
 H      1   2   0     0.958000441282   104.50004526     0.00000000
 O      1   2   3     2.799999997979   157.74996982   179.99999915
 H      4   1   2     0.958000420010   157.74996982     0.00000000
 H      4   1   2     0.958000441282    97.74998492   180.00000085

---------------------------
INTERNAL COORDINATES (A.U.)
---------------------------
 O      0   0   0     0.000000000000     0.00000000     0.00000000
 H      1   0   0     1.810358430000     0.00000000     0.00000000
 H      1   2   0     1.810358470199   104.50004526     0.00000000
 O      1   2   3     5.291233171160   157.74996982   179.99999915
 H      4   1   2     1.810358430000   157.74996982     0.00000000
 H      4   1   2     1.810358470199    97.74998492   180.00000085

---------------------
BASIS SET INFORMATION
---------------------
There are 2 groups of distinct atoms

 Group   1 Type O   : 18s5p2d1f contracted to 4s3p2d1f pattern {8811/311/11/1}
 Group   2 Type H   : 5s2p1d contracted to 3s2p1d pattern {311/11/1}

Atom   0O    basis set group =>   1
Atom   1H    basis set group =>   2
Atom   2H    basis set group =>   2
Atom   3O    basis set group =>   1
Atom   4H    basis set group =>   2
Atom   5H    basis set group =>   2


           ************************************************************
           *        Program running with 6 parallel MPI-processes     *
           *              working on a common directory               *
           ************************************************************
------------------------------------------------------------------------------
                             ORCA STARTUP CALCULATIONS
------------------------------------------------------------------------------
------------------------------------------------------------------------------
                   ___                                                        
                  /   \      - P O W E R E D   B Y -                         
                 /     \                                                     
                 |  |  |   _    _      __       _____    __    __             
                 |  |  |  | |  | |    /  \     |  _  \  |  |  /  |          
                  \  \/   | |  | |   /    \    | | | |  |  | /  /          
                 / \  \   | |__| |  /  /\  \   | |_| |  |  |/  /          
                |  |  |   |  __  | /  /__\  \  |    /   |      \           
                |  |  |   | |  | | |   __   |  |    \   |  |\   \          
                \     /   | |  | | |  |  |  |  | |\  \  |  | \   \       
                 \___/    |_|  |_| |__|  |__|  |_| \__\ |__|  \__/        
                                                                              
                      - O R C A' S   B I G   F R I E N D -                    
                                      &                                       
                       - I N T E G R A L  F E E D E R -                       
                                                                              
 v1 FN, 2020, v2 2021, v3 2022-2024                                           
------------------------------------------------------------------------------


----------------------
SHARK INTEGRAL PACKAGE
----------------------

Number of atoms                             ...      6
Number of basis functions                   ...    128
Number of shells                            ...     56
Maximum angular momentum                    ...      3
Integral batch strategy                     ... SHARK/LIBINT Hybrid
RI-J (if used) integral strategy            ... SPLIT-RIJ (Revised 2003 algorithm where possible)
Printlevel                                  ...      1
Contraction scheme used                     ... PARTIAL GENERAL contraction
Prescreening option                         ... SCHWARTZ
   Thresh                                   ... 1.000e-09
   Tcut                                     ... 1.000e-10
   Tpresel                                  ... 1.000e-10 
Coulomb Range Separation                    ... NOT USED
Exchange Range Separation                   ... NOT USED
Multipole approximations                    ... NOT USED
Finite Nucleus Model                        ... NOT USED
CABS basis                                  ... NOT available
Auxiliary Coulomb fitting basis             ... NOT available
Auxiliary J/K fitting basis                 ... NOT available
Auxiliary Correlation fitting basis         ... NOT available
Auxiliary 'external' fitting basis          ... NOT available

Checking pre-screening integrals            ... done (  0.0 sec) Dimension = 56
Save PGC pre-screening integrals            ... done (  0.0 sec) Dimension = 56
Calculate PGC overlap integrals             ... done (  0.0 sec) Dimension = 44
Calculating pre-screening integrals (ORCA)  ... done (  0.0 sec) Dimension = 44
Check shell pair data                       ... done (  0.0 sec)
Shell pair information
Shell pair cut-off parameter TPreSel        ...   1.0e-10
Total number of shell pairs                 ...      1596
Shell pairs after pre-screening             ...      1335
Total number of primitive shell pairs       ...      2364
Primitive shell pairs kept                  ...      1809
          la=0 lb=0:    427 shell pairs
          la=1 lb=0:    390 shell pairs
          la=1 lb=1:     97 shell pairs
          la=2 lb=0:    200 shell pairs
          la=2 lb=1:     98 shell pairs
          la=2 lb=2:     30 shell pairs
          la=3 lb=0:     48 shell pairs
          la=3 lb=1:     26 shell pairs
          la=3 lb=2:     16 shell pairs
          la=3 lb=3:      3 shell pairs

Calculating one electron integrals          ... done (  0.0 sec)
Calculating Nuclear repulsion               ... done (  0.0 sec) ENN=     36.056455703549 Eh

Diagonalization of the overlap matrix:
Smallest eigenvalue                        ... 1.784e-03
Time for diagonalization                   ...    0.001 sec
Threshold for overlap eigenvalues          ... 1.000e-07
Number of eigenvalues below threshold      ... 0
Time for construction of square roots      ...    0.000 sec
Total time needed                          ...    0.002 sec

-------------------
DFT GRID GENERATION
-------------------

General Integration Accuracy     IntAcc      ... 4.388
Radial Grid Type                 RadialGrid  ... OptM3 with GC (2021)
Angular Grid (max. ang.)         AngularGrid ... 4 (Lebedev-302)
Angular grid pruning method      GridPruning ... 4 (adaptive)
Weight generation scheme         WeightScheme... mBecke (2022)
Basis function cutoff            BFCut       ... 1.0000e-10
Integration weight cutoff        WCut        ... 1.0000e-14
Partially contracted basis set               ... off
Rotationally invariant grid construction     ... off
Angular grids for H and He will be reduced by one unit

Total number of grid points                  ...    25476
Total number of batches                      ...      402
Average number of points per batch           ...       63
Average number of grid points per atom       ...     4246

---------------------
SHARK GRID GENERATION
---------------------

General Integration Accuracy     IntAcc      ... 4.388
Radial Grid Type                 RadialGrid  ... OptM3 with GC (2021)
Angular Grid (max. ang.)         AngularGrid ... 4 (Lebedev-302)
Angular grid pruning method      GridPruning ... 4 (adaptive)
Weight generation scheme         WeightScheme... mBecke (2022)
Basis function cutoff            BFCut       ... 1.0000e-10
Integration weight cutoff        WCut        ... 1.0000e-14
Partially contracted basis set               ... off
Rotationally invariant grid construction     ... off
Angular grids for H and He will be reduced by one unit
Steep s-basis detected: some atoms will have their radial
                        grid points doubled.

Total number of grid points                  ...    37944
Total number of batches                      ...      594
Average number of points per batch           ...       63
Average number of grid points per atom       ...     6324
Initializing property integral containers    ... done (  0.0 sec)

SHARK setup successfully completed in   0.4 seconds

Maximum memory used throughout the entire STARTUP-calculation: 17.6 MB


           ************************************************************
           *        Program running with 6 parallel MPI-processes     *
[...]
  1 H      0.7662     1.0000     0.2338     1.0200     0.9619     0.0580
  2 H      0.7659     1.0000     0.2341     1.0204     0.9625     0.0580
  3 O      8.4679     8.0000    -0.4679     2.2569     1.8975     0.3594
  4 H      0.7662     1.0000     0.2338     1.0200     0.9619     0.0580
  5 H      0.7659     1.0000     0.2341     1.0204     0.9625     0.0580

  Mayer bond orders larger than 0.100000
B(  0-O ,  1-H ) :   0.9485 B(  0-O ,  2-H ) :   0.9490 B(  3-O ,  4-H ) :   0.9485 
B(  3-O ,  5-H ) :   0.9490 


                *******************************************
                * RELAXED MP2 DENSITY POPULATION ANALYSIS *
                *******************************************

------------------------------------------------------------------------------
                           ORCA POPULATION ANALYSIS
------------------------------------------------------------------------------
Input electron density              ... 2H2O.pmp2re
BaseName (.gbw .S,...)              ... 2H2O

                    ********************************
                    * MULLIKEN POPULATION ANALYSIS *
                    ********************************

-----------------------
MULLIKEN ATOMIC CHARGES
-----------------------
   0 O :   -0.467074
   1 H :    0.233429
   2 H :    0.233645
   3 O :   -0.467074
   4 H :    0.233429
   5 H :    0.233645
Sum of atomic charges:    0.0000000

--------------------------------
MULLIKEN REDUCED ORBITAL CHARGES
--------------------------------
  0 O s       :     3.774764  s :     3.774764
      pz      :     1.899619  p :     4.645740
      px      :     1.457060
      py      :     1.289062
      dz2     :     0.009392  d :     0.043182
      dxz     :     0.006862
      dyz     :     0.005862
      dx2y2   :     0.013243
      dxy     :     0.007823
      f0      :     0.000471  f :     0.003388
      f+1     :     0.000594
      f-1     :     0.000634
      f+2     :     0.000357
      f-2     :     0.000361
      f+3     :     0.000328
      f-3     :     0.000644
  1 H s       :     0.668472  s :     0.668472
      pz      :     0.041419  p :     0.091134
      px      :     0.027538
      py      :     0.022176
      dz2     :     0.000577  d :     0.006965
      dxz     :     0.002379
      dyz     :     0.000610
      dx2y2   :     0.002169
      dxy     :     0.001231
  2 H s       :     0.667947  s :     0.667947
      pz      :     0.041416  p :     0.091423
      px      :     0.029408
      py      :     0.020599
      dz2     :     0.000577  d :     0.006985
      dxz     :     0.000132
      dyz     :     0.002864
      dx2y2   :     0.001243
      dxy     :     0.002169
  3 O s       :     3.774764  s :     3.774764
      pz      :     1.899619  p :     4.645740
      px      :     1.457060
      py      :     1.289062
      dz2     :     0.009392  d :     0.043182
      dxz     :     0.006862
      dyz     :     0.005862
      dx2y2   :     0.013243
      dxy     :     0.007823
      f0      :     0.000471  f :     0.003388
      f+1     :     0.000594
      f-1     :     0.000634
      f+2     :     0.000357
      f-2     :     0.000361
      f+3     :     0.000328
      f-3     :     0.000644
  4 H s       :     0.668472  s :     0.668472
      pz      :     0.041419  p :     0.091134
      px      :     0.027538
      py      :     0.022176
      dz2     :     0.000577  d :     0.006965
      dxz     :     0.002379
      dyz     :     0.000610
      dx2y2   :     0.002169
      dxy     :     0.001231
  5 H s       :     0.667947  s :     0.667947
      pz      :     0.041416  p :     0.091423
      px      :     0.029408
      py      :     0.020599
      dz2     :     0.000577  d :     0.006985
      dxz     :     0.000132
      dyz     :     0.002864
      dx2y2   :     0.001243
      dxy     :     0.002169


                     *******************************
                     * LOEWDIN POPULATION ANALYSIS *
                     *******************************

----------------------
LOEWDIN ATOMIC CHARGES
----------------------
   0 O :    0.379320
   1 H :   -0.189623
   2 H :   -0.189696
   3 O :    0.379320
   4 H :   -0.189623
   5 H :   -0.189696

-------------------------------
LOEWDIN REDUCED ORBITAL CHARGES
-------------------------------
  0 O s       :     3.169943  s :     3.169943
      pz      :     1.669574  p :     4.382675
      px      :     1.424110
      py      :     1.288991
      dz2     :     0.012161  d :     0.062216
      dxz     :     0.005406
      dyz     :     0.005030
      dx2y2   :     0.026279
      dxy     :     0.013340
      f0      :     0.000772  f :     0.005846
      f+1     :     0.000601
      f-1     :     0.000739
      f+2     :     0.000370
      f-2     :     0.000383
      f+3     :     0.001213
      f-3     :     0.001768
  1 H s       :     0.712314  s :     0.712314
      pz      :     0.122933  p :     0.376971
      px      :     0.173772
      py      :     0.080266
      dz2     :     0.008011  d :     0.100339
      dxz     :     0.031700
      dyz     :     0.005747
      dx2y2   :     0.032014
      dxy     :     0.022866
  2 H s       :     0.712268  s :     0.712268
      pz      :     0.122965  p :     0.377035
      px      :     0.092635
      py      :     0.161434
      dz2     :     0.008013  d :     0.100394
      dxz     :     0.000616
      dyz     :     0.036856
      dx2y2   :     0.023351
      dxy     :     0.031559
  3 O s       :     3.169943  s :     3.169943
      pz      :     1.669574  p :     4.382675
      px      :     1.424110
      py      :     1.288991
      dz2     :     0.012161  d :     0.062216
      dxz     :     0.005406
      dyz     :     0.005030
      dx2y2   :     0.026279
      dxy     :     0.013340
      f0      :     0.000772  f :     0.005846
      f+1     :     0.000601
      f-1     :     0.000739
      f+2     :     0.000370
      f-2     :     0.000383
      f+3     :     0.001213
      f-3     :     0.001768
  4 H s       :     0.712314  s :     0.712314
      pz      :     0.122933  p :     0.376971
      px      :     0.173772
      py      :     0.080266
      dz2     :     0.008011  d :     0.100339
      dxz     :     0.031700
      dyz     :     0.005747
      dx2y2   :     0.032014
      dxy     :     0.022866
  5 H s       :     0.712268  s :     0.712268
      pz      :     0.122965  p :     0.377035
      px      :     0.092635
      py      :     0.161434
      dz2     :     0.008013  d :     0.100394
      dxz     :     0.000616
      dyz     :     0.036856
      dx2y2   :     0.023351
      dxy     :     0.031559


                      *****************************
                      * MAYER POPULATION ANALYSIS *
                      *****************************

  NA   - Mulliken gross atomic population
  ZA   - Total nuclear charge
  QA   - Mulliken gross atomic charge
  VA   - Mayer's total valence
  BVA  - Mayer's bonded valence
  FA   - Mayer's free valence

  ATOM       NA         ZA         QA         VA         BVA        FA
  0 O      8.4671     8.0000    -0.4671     2.2767     1.9200     0.3567
  1 H      0.7666     1.0000     0.2334     1.0326     0.9750     0.0576
  2 H      0.7664     1.0000     0.2336     1.0331     0.9755     0.0576
  3 O      8.4671     8.0000    -0.4671     2.2767     1.9200     0.3567
  4 H      0.7666     1.0000     0.2334     1.0326     0.9750     0.0576
  5 H      0.7664     1.0000     0.2336     1.0331     0.9755     0.0576

  Mayer bond orders larger than 0.100000
B(  0-O ,  1-H ) :   0.9597 B(  0-O ,  2-H ) :   0.9603 B(  3-O ,  4-H ) :   0.9597 
B(  3-O ,  5-H ) :   0.9603 


----------------------------------
MP2 DERIVATIVE INTEGRAL GENERATION
----------------------------------

Input SCF Electron Density              ... 2H2O.scfp
Input Correlated Electron Density       ... 2H2O.pmp2re
Input Energy Weighted Density           ... 2H2O.wmp2.tmp
Input Wavefunction Amplitudes           ... 2H2O.mp2tsaa.tmp

Nuclear repulsion gradient              ... done (  0.0 sec)
HCore & Overlap gradient  (SHARK)       ... done (  0.0 sec)
Analytic two-electron gradient terms    ... 
  Batch handling in the gradient evaluation:
  General contraction                   ... not used
  Memory available                      ... 4087.8 MB
  Memory per occupied orbital in Q2     ...    0.8 MB
  Memory per occupied orbital in Q3     ...    0.0 MB
  Total memory requirement per |i>      ...    0.9 MB
  Number of orbitals treated per batch  ...      8
  Number of batches to be done          ...      1
done (  0.4 sec)

---------------------------------------
MP2 TOTAL ENERGY:     -152.636197449 Eh
---------------------------------------

The final MP2 gradient
  0:  -0.00286344  -0.00199938   0.00000001
  1:   0.00122261   0.00165468  -0.00000000
  2:   0.00193029   0.00034470  -0.00000000
  3:   0.00286343  -0.00199939  -0.00000003
  4:  -0.00122272   0.00165451   0.00000002
  5:  -0.00193018   0.00034487   0.00000002

-----------------------------------
NORM OF THE MP2 GRADIENT:  0.006368
-----------------------------------

Maximum memory used throughout the entire MP2-calculation: 41.1 MB

-------------------------   --------------------
FINAL SINGLE POINT ENERGY      -152.636197449282
-------------------------   --------------------

                                *** OPTIMIZATION RUN DONE ***


Storing optimized geometry in 2H2O.005.xyz ... done
Storing optimized geometry and energy in 2H2O.xyzall ... done
Storing actual gbw-file in 2H2O.005.gbw ... done


           ************************************************************
           *        Program running with 6 parallel MPI-processes     *
           *              working on a common directory               *
           ************************************************************

------------------------------------------------------------------------------
                              ORCA PROPERTY CALCULATIONS
------------------------------------------------------------------------------

GBWName                                 ... 2H2O.gbw
Number of atoms                         ...      6
Number of basis functions               ...    128
Max core memory                         ...   1024 MB

Electric properties:
Dipole moment                           ... YES
Quadrupole moment                       ...  NO
Static polarizability (Dipole/Dipole)   ...  NO
Static polarizability (Dipole/Quad.)    ...  NO
Static polarizability (Quad./Quad.)     ...  NO
Static polarizability (Velocity)        ...  NO

Atomic electric properties:
Dipole moment                           ...  NO
Quadrupole moment                       ...  NO
Static polarizability                   ...  NO

Choice of electric origin               ... Center of mass
Position of electric origin             ...     2.645617    -0.058878     0.000002

General magnetic properties:
Magnetizability                         ...  NO

EPR properties:
g-Tensor (aka g-matrix)                 ...  NO
Zero-Field splitting spin-orbit         ...  NO
Zero-field splitting spin-spin          ...  NO
Hyperfine couplings                     ...  NO (   0 nuclei)
Quadrupole couplings                    ...  NO (   0 nuclei)
Contact density                         ...  NO (   0 nuclei)

NMR properties:
Chemical shifts                         ...  NO (   0 nuclei)
Spin-rotation constants                 ...  NO (   0 nuclei)
Spin-spin couplings                     ...  NO (   0 nuclei,    0 pairs)

Choice of magnetic origin               ... GIAO
Position of magnetic origin             ...     0.000000     0.000000     0.000000

Properties with geometric perturbations:
SCF Hessian                             ...  NO
IR spectrum                             ...  NO
VCD spectrum                            ...  NO
X-ray spectroscopy properties:
SCF XES/XAS/RIXS spectra                ...  NO


-------------
DIPOLE MOMENT
-------------

Method             : SCF
Type of density    : Electron Density
Multiplicity       :   1
Irrep              :   0
Energy             :  -152.1130869314940526 Eh
Relativity type    : 
Basis              : AO
                                X                 Y                 Z
Electronic contribution:      0.000000000       0.188082235       0.000001178
Nuclear contribution   :     -0.000000000      -0.986326869      -0.000006291
                        -----------------------------------------
Total Dipole Moment    :     -0.000000000      -0.798244634      -0.000005113
                        -----------------------------------------
Magnitude (a.u.)       :      0.798244634
Magnitude (Debye)      :      2.028976614



--------------------
Rotational spectrum 
--------------------
 
Rotational constants in cm-1:             8.266462             0.071158             0.070550 
Rotational constants in MHz :        247822.307860          2133.249926          2115.043668 

Dipole components along the rotational axes: 
x,y,z [a.u.] :    -0.000000     0.798245    -0.000005 
x,y,z [Debye]:    -0.000000     2.028977    -0.000012 

 

-------------
DIPOLE MOMENT
-------------

Method             : MP2
Type of density    : Electron Density
Multiplicity       :   1
Level              : Unrelaxed density
Irrep              :   0
Energy             :     0.0000000000000000 Eh
Relativity type    : 
Basis              : AO
                                X                 Y                 Z
Electronic contribution:      0.000000000       0.201591992       0.000001264
Nuclear contribution   :     -0.000000000      -0.986326869      -0.000006291
                        -----------------------------------------
Total Dipole Moment    :     -0.000000000      -0.784734877      -0.000005027
                        -----------------------------------------
Magnitude (a.u.)       :      0.784734877
Magnitude (Debye)      :      1.994637541



--------------------
Rotational spectrum 
--------------------
 
Rotational constants in cm-1:             8.266462             0.071158             0.070550 
Rotational constants in MHz :        247822.307860          2133.249926          2115.043668 

Dipole components along the rotational axes: 
x,y,z [a.u.] :    -0.000000     0.784735    -0.000005 
x,y,z [Debye]:    -0.000000     1.994638    -0.000012 

 

-------------
DIPOLE MOMENT
-------------

Method             : MP2
Type of density    : Electron Density
Multiplicity       :   1
Level              : Relaxed density
Irrep              :   0
Energy             :     0.0000000000000000 Eh
Relativity type    : 
Basis              : AO
                                X                 Y                 Z
Electronic contribution:      0.000000000       0.229208366       0.000001439
Nuclear contribution   :     -0.000000000      -0.986326869      -0.000006291
                        -----------------------------------------
Total Dipole Moment    :     -0.000000000      -0.757118503      -0.000004852
                        -----------------------------------------
Magnitude (a.u.)       :      0.757118503
Magnitude (Debye)      :      1.924442296



--------------------
Rotational spectrum 
--------------------
 
Rotational constants in cm-1:             8.266462             0.071158             0.070550 
Rotational constants in MHz :        247822.307860          2133.249926          2115.043668 

Dipole components along the rotational axes: 
x,y,z [a.u.] :    -0.000000     0.757119    -0.000004 
x,y,z [Debye]:    -0.000000     1.924442    -0.000011 

 

Dipole moment calculation done in   0.0 sec 

Maximum memory used throughout the entire PROP-calculation: 5.9 MB
                   **** RELAXED SURFACE SCAN DONE ***

                    SUMMARY OF THE CALCULATED SURFACE

----------------------------
RELAXED SURFACE SCAN RESULTS
----------------------------

Column   1: NONAME

The Calculated Surface using the 'Actual Energy'
   2.80000000 -152.63176012
   3.35000000 -152.63462407
   3.90000000 -152.63546510
   4.45000000 -152.63586892
   5.00000000 -152.63619745

The Calculated Surface using the SCF energy
   2.80000000 -152.10669851
   3.35000000 -152.11063863
   3.90000000 -152.11198523
   4.45000000 -152.11263538
   5.00000000 -152.11308693

The Calculated Surface using the MP2 energy
   2.80000000 -152.63176012
   3.35000000 -152.63462407
   3.90000000 -152.63546510
   4.45000000 -152.63586892
   5.00000000 -152.63619745


--------------------------------
SUGGESTED CITATIONS FOR THIS RUN
--------------------------------

Below you find a list of papers that are relevant to this ORCA run
We neither can nor want to force you to cite these papers, but we appreciate if you do
You receive ORCA, which is the product of decades of hard work by many enthusiastic individuals, for free
The only thing we kindly ask in return is that you cite our papers,
We deeply appreciate it, if you show your appreciation for ORCA by not just citing the generic ORCA reference.

Please note that relegating all ORCA citations to the supporting information does *not* help us.
SI sections are not indexed - citations you put there will not count into any citation statistics
But we need these citations in order to attract the funding resources that allow us to do what we are doing

Therefore, if you are a happy ORCA user, please consider citing a few of the papers listed below in the main body of your paper

In addition to the list printed below, the program has created the file 2H2O.bibtex that contains the list in bibtex format
You can import this file easily into all common literature databanks and citation aid programs


List of essential papers. We consider these as the minimum necessary citations

  1. Neese,F.
     Software update: the ORCA program system, version 5.0
     WIRES Comput. Molec. Sci., 2022 12(1)e1606
     doi.org/10.1002/wcms.1606

List of papers to cite with high priority. The work reported in these papers was absolutely
necessary for this run to complete.
Our perspective: the developers of density functionals and basis sets usually get cited in chemistry papers
Good! But without the algorithms to do something with them, the functionals or basis sets would not do anything.
Hence, in our opinion, the algorithm design and method developments papers are equally worthy of getting cited

  1. Neese,F.
     The SHARK Integral Generation and Digestion System
     J. Comp. Chem., 2022  1-16
     doi.org/10.1002/jcc.26942

List of suggested additional citations. These are papers that are important in the 'surrounding' of 
of this run, or papers that preceded the highly important papers. If you like your results we are grateful for a citation.

  1. Neese,F.
     The ORCA program system
     WIRES Comput. Molec. Sci., 2012 2(1)73-78
     doi.org/10.1002/wcms.81
  2. Neese,F.
     Software update: the ORCA program system, version 4.0
     WIRES Comput. Molec. Sci., 2018 8(1)1-6
     doi.org/10.1002/wcms.1327
  3. Neese,F.; Wennmohs,F.; Becker,U.; Riplinger,C.
     The ORCA quantum chemistry program package
     J. Chem. Phys., 2020 152 Art. No. L224108
     doi.org/10.1063/5.0004608

List of optional additional citations

  1. Neese,F.
     Approximate second-order SCF convergence for spin unrestricted wavefunctions
     Chem. Phys. Lett., 2000 325(1-3)93-98
     doi.org/10.1016/s0009-2614(00)00662-x

Timings for individual modules:

Sum of individual times          ...       38.590 sec (=   0.643 min)
Startup calculation              ...        6.779 sec (=   0.113 min)  17.6 %
SCF iterations                   ...       12.092 sec (=   0.202 min)  31.3 %
Property calculations            ...        1.909 sec (=   0.032 min)   4.9 %
MP2 module                       ...       17.783 sec (=   0.296 min)  46.1 %
Geometry relaxation              ...        0.027 sec (=   0.000 min)   0.1 %
                             ****ORCA TERMINATED NORMALLY****
TOTAL RUN TIME: 0 days 0 hours 0 minutes 42 seconds 777 msec
