
                                 *****************
                                 * O   R   C   A *
                                 *****************

                                            #,                                       
                                            ###                                      
                                            ####                                     
                                            #####                                    
                                            ######                                   
                                           ########,                                 
                                     ,,################,,,,,                         
                               ,,#################################,,                 
                          ,,##########################################,,             
                       ,#########################################, ''#####,          
                    ,#############################################,,   '####,        
                  ,##################################################,,,,####,       
                ,###########''''           ''''###############################       
              ,#####''   ,,,,##########,,,,          '''####'''          '####       
            ,##' ,,,,###########################,,,                        '##       
           ' ,,###''''                  '''############,,,                           
         ,,##''                                '''############,,,,        ,,,,,,###''
      ,#''                                            '''#######################'''  
     '                                                          ''''####''''         
             ,#######,   #######,   ,#######,      ##                                
            ,#'     '#,  ##    ##  ,#'     '#,    #''#        ,####,   ,####,        
            ##       ##  ##   ,#'  ##            #'  '#       #'       #'  '#        
            ##       ##  #######   ##           ,######,      #####,   #    #        
            '#,     ,#'  ##    ##  '#,     ,#' ,#      #,     #,   #   #,  ,#        
             '#######'   ##     ##  '#######'  #'      '#     '####' # '####'        



                #########################################################
                #                        -***-                          #
                #          Department of theory and spectroscopy        #
                #                                                       #
                #                      Frank Neese                      #
                #                                                       #
                #     Directorship, Architecture, Infrastructure        #
                #                    SHARK, DRIVERS                     #
                #        Core code/Algorithms in most modules           #
                #                                                       #
                #        Max Planck Institute fuer Kohlenforschung      #
                #                Kaiser Wilhelm Platz 1                 #
                #                 D-45470 Muelheim/Ruhr                 #
                #                      Germany                          #
                #                                                       #
                #                  All rights reserved                  #
                #                        -***-                          #
                #########################################################


                         Program Version 6.0.0  -   RELEASE  -


 With contributions from (in alphabetic order):
   Daniel Aravena         : Magnetic Suceptibility
   Michael Atanasov       : Ab Initio Ligand Field Theory (pilot matlab implementation)
   Alexander A. Auer      : GIAO ZORA, VPT2 properties, NMR spectrum
   Ute Becker             : All parallelization in ORCA, NUMFREQ, NUMCALC
   Giovanni Bistoni       : ED, misc. LED, open-shell LED, HFLD
   Martin Brehm           : Molecular dynamics
   Dmytro Bykov           : pre 5.0 version of the SCF Hessian
   Marcos Casanova-Páez   : Triplet and SCS-CIS(D). UHF-(DLPNO)-IP/EA/STEOM-CCSD. UHF-CVS-IP/STEOM-CCSD
   Vijay G. Chilkuri      : MRCI spin determinant printing, contributions to CSF-ICE
   Pauline Colinet        : FMM embedding
   Dipayan Datta          : RHF DLPNO-CCSD density
   Achintya Kumar Dutta   : EOM-CC, STEOM-CC
   Nicolas Foglia         : Exact transition moments, OPA infrastructure, MCD improvements
   Dmitry Ganyushin       : Spin-Orbit,Spin-Spin,Magnetic field MRCI
   Miquel Garcia          : C-PCM and meta-GGA Hessian, CCSD/C-PCM, Gaussian charge scheme
   Tiago L. C. Gouveia    : GS-ROHF, GS-ROCIS
   Yang Guo               : DLPNO-NEVPT2, F12-NEVPT2, CIM, IAO-localization
   Andreas Hansen         : Spin unrestricted coupled pair/coupled cluster methods
   Ingolf Harden          : AUTO-CI MPn and infrastructure 
   Benjamin Helmich-Paris : MC-RPA, TRAH-(SCF,CASSCF), AVAS, COSX integrals, SCF dyn. polar.
   Lee Huntington         : MR-EOM, pCC
   Robert Izsak           : Overlap fitted RIJCOSX, COSX-SCS-MP3, EOM
   Riya Kayal             : Wick's Theorem for AUTO-CI, AUTO-CI UHF-CCSDT
   Emily Kempfer          : AUTO-CI, RHF CISDT and CCSDT
   Christian Kollmar      : KDIIS, OOCD, Brueckner-CCSD(T), CCSD density, CASPT2, CASPT2-K, improved NEVPT2
   Axel Koslowski         : Symmetry handling
   Simone Kossmann        : Meta GGA functionals, TD-DFT gradient, OOMP2, (MP2 Hessian; deprecated post 5.0)
   Lucas Lang             : DCDCAS
   Marvin Lechner         : AUTO-CI (C++ implementation), FIC-MRCC
   Spencer Leger          : CASSCF response
   Dagmar Lenk            : GEPOL surface, SMD, ORCA-2-JSON
   Dimitrios Liakos       : Extrapolation schemes; Compound Job, initial MDCI parallelization
   Dimitrios Manganas     : Further ROCIS development; embedding schemes. LFT, Crystal Embedding
   Dimitrios Pantazis     : SARC Basis sets
   Anastasios Papadopoulos: AUTO-CI, single reference methods and gradients
   Taras Petrenko         : pre 6.0 DFT Hessian and TD-DFT gradient, (ASA, deprecated), ECA, 1-Electron XAS/XES, NRVS
   Peter Pinski           : DLPNO-MP2, DLPNO-MP2 Gradient
   Christoph Reimann      : Effective Core Potentials
   Marius Retegan         : Local ZFS, SOC
   Christoph Riplinger    : Optimizer, TS searches, QM/MM, DLPNO-CCSD(T), (RO)-DLPNO pert. Triples
   Michael Roemelt        : Original ROCIS implementation
   Masaaki Saitow         : Open-shell DLPNO-CCSD energy and density
   Barbara Sandhoefer     : DKH picture change effects
   Kantharuban Sivalingam : CASSCF convergence/infrastructure, NEVPT2 and variants, FIC-MRCI
   Bernardo de Souza      : ESD, SOC TD-DFT
   Georgi Stoychev        : AutoAux, RI-MP2 NMR, DLPNO-MP2 response, X2C
   Van Anh Tran           : RI-MP2 g-tensors
   Willem Van den Heuvel  : Paramagnetic NMR
   Zikuan Wang            : NOTCH, Electric field optimization 
   Frank Wennmohs         : Technical directorship and infrastructure
   Hang Xu                : AUTO-CI-Response properties 


 We gratefully acknowledge several colleagues who have allowed us to
 interface, adapt or use parts of their codes:
   Stefan Grimme, W. Hujo, H. Kruse, P. Pracht,  : VdW corrections, initial TS optimization,
                  C. Bannwarth, S. Ehlert,         DFT functionals, gCP, sTDA/sTD-DF
                  L. Wittmann, M. Mueller
   Ed Valeev, F. Pavosevic, A. Kumar             : LibInt (2-el integral package), F12 methods
   Garnet Chan, S. Sharma, J. Yang, R. Olivares  : DMRG
   Ulf Ekstrom                                   : XCFun DFT Library
   Mihaly Kallay                                 : mrcc  (arbitrary order and MRCC methods)
   Frank Weinhold                                : gennbo (NPA and NBO analysis)
   Simon Mueller                                 : openCOSMO-RS
   Christopher J. Cramer and Donald G. Truhlar   : smd solvation model
   Lars Goerigk                                  : TD-DFT with DH, B97 family of functionals
   V. Asgeirsson, H. Jonsson                     : NEB implementation
   FAccTs GmbH                                   : IRC, NEB, NEB-TS, DLPNO-Multilevel, CI-OPT
                                                   MM, QMMM, 2- and 3-layer-ONIOM, Crystal-QMMM,
                                                   LR-CPCM, SF, NACMEs, symmetry and pop. for TD-DFT,
                                                   nearIR, NL-DFT gradient (VV10), updates on ESD,
                                                   ML-optimized integration grids, MBIS, APM,
                                                   GOAT, DOCKER, SOLVATOR, interface openCOSMO-RS
   S Lehtola, MJT Oliveira, MAL Marques          : LibXC Library
   Liviu Ungur et al                             : ANISO software


 Your calculation uses the libint2 library for the computation of 2-el integrals
 For citations please refer to: http://libint.valeyev.net

 Your ORCA version has been built with support for libXC version: 6.2.2
 For citations please refer to: https://libxc.gitlab.io

 This ORCA versions uses:
   CBLAS   interface :  Fast vector & matrix operations
   LAPACKE interface :  Fast linear algebra routines
   SCALAPACK package :  Parallel linear algebra routines
   Shared memory     :  Shared parallel matrices
   BLAS/LAPACK       :  OpenBLAS 0.3.27  USE64BITINT DYNAMIC_ARCH NO_AFFINITY Haswell SINGLE_THREADED
        Core in use  :  Haswell
   Copyright (c) 2011-2014, The OpenBLAS Project


================================================================================

----- Orbital basis set information -----
Your calculation utilizes the basis: aug-cc-pVTZ 
    H, B-Ne : Obtained from the ccRepo (grant-hill.group.shef.ac.uk/ccrepo) Feb. 2017
              R. A. Kendall, T. H. Dunning, Jr., R. J. Harrison, J. Chem. Phys. 96, 6796 (1992)
         He : Obtained from the ccRepo (grant-hill.group.shef.ac.uk/ccrepo) Feb. 2017
              D. E. Woon, T. H. Dunning, Jr., J. Chem. Phys. 100, 2975 (1994)
  Li-Be, Na : Obtained from the ccRepo (grant-hill.group.shef.ac.uk/ccrepo) Feb. 2017
              B. P. Prascher, D. E. Woon, K. A. Peterson, T. H. Dunning, Jr., A. K. Wilson, Theor. Chem. Acc. 128, 69 (2011)
         Mg : Obtained from the Peterson Research Group Website (tyr0.chem.wsu.edu/~kipeters) Feb. 2017
              B. P. Prascher, D. E. Woon, K. A. Peterson, T. H. Dunning, Jr., A. K. Wilson, Theor. Chem. Acc. 128, 69 (2011)
      Al-Ar : Obtained from the ccRepo (grant-hill.group.shef.ac.uk/ccrepo) Feb. 2017
              D. E. Woon, T. H. Dunning, Jr., J. Chem. Phys. 98, 1358 (1993)
      Sc-Zn : Obtained from the ccRepo (grant-hill.group.shef.ac.uk/ccrepo) Feb. 2017
              N. B. Balabanov, K. A. Peterson, J. Chem. Phys. 123, 064107 (2005)
              N. B. Balabanov, K. A. Peterson, J. Chem. Phys. 125, 074110 (2006)
      Ga-Kr : Obtained from the ccRepo (grant-hill.group.shef.ac.uk/ccrepo) Feb. 2017
              A. K. Wilson, D. E. Woon, K. A. Peterson, T. H. Dunning, Jr., J. Chem. Phys. 110, 7667 (1999)
     Ag, Au : Obtained from the Peterson Research Group Website (tyr0.chem.wsu.edu/~kipeters) Feb. 2017
              K. A. Peterson, C. Puzzarini, Theor. Chem. Acc. 114, 283 (2005)

================================================================================
                                        WARNINGS
                       Please study these warnings very carefully!
================================================================================

WARNING: Old DensityContainer found on disk!
         Will remove this file - 
         If you want to keep old densities, please start your calculation with a different basename. 


WARNING: The frozen-core approximation for MP2-gradient calculations is turned on by default.

WARNING: Geometry Optimization
  ===> : Switching off AutoStart
         For restart on a previous wavefunction, please use MOREAD

WARNING: Post HF methods need fully converged wavefunctions
  ===> : Setting SCFConvForced true
         You can overwrite this default with %scf ConvForced false 


================================================================================
                                       INPUT FILE
================================================================================
NAME = AR2.inp
|  1> # MP2 scan of the potential energy curve for Ar...Ar
|  2> ! MP2 aug-cc-pVTZ TightSCF opt PAL2
|  3> %geom Scan
|  4>       B 0 1 = 2.8, 5.0, 5 # distance that will be scanned
|  5>       end
|  6> end
|  7> * gzmt 0 1
|  8> Ar
|  9> Ar  1  3.600
| 10> **                         ****END OF INPUT****
================================================================================

                       ******************************
                       *    Relaxed Surface Scan    *
                       ******************************

                      Bond (  1,   0):   range=   2.80000000 ..   5.00000000  steps =    5

There is 1 parameter to be scanned.
There will be    5 constrained geometry optimizations.


         *************************************************************
         *               RELAXED SURFACE SCAN STEP   1               *
         *                                                           *
         *                 Bond (  1,   0)  :   2.80000000           *
         *************************************************************

Geometry optimization settings:
Update method            Update   .... BFGS
Choice of coordinates    CoordSys .... (2022) Redundant Internals
Initial Hessian          InHess   .... Almloef's Model
Max. no of cycles        MaxIter  .... 50

Convergence Tolerances:
Energy Change            TolE     ....  5.0000e-06 Eh
Max. Gradient            TolMAXG  ....  3.0000e-04 Eh/bohr
RMS Gradient             TolRMSG  ....  1.0000e-04 Eh/bohr
Max. Displacement        TolMAXD  ....  4.0000e-03 bohr
RMS Displacement         TolRMSD  ....  2.0000e-03 bohr
Strict Convergence                .... False

------------------------------------------------------------------------------
                        ORCA OPTIMIZATION COORDINATE SETUP
------------------------------------------------------------------------------

The optimization will be done in redundant internal coordinates (2022)
Making redundant internal coordinates   ...  (2022 redundants) done
Evaluating the initial hessian          ...  (Almloef) done
Evaluating the coordinates              ...  done
Calculating the B-matrix                .... done
Calculating the G-matrix                .... done
Diagonalizing the G-matrix              .... done
Will constrain atom 0 coordinate 1 
Will constrain atom 0 coordinate 2 
Will constrain atom 0 coordinate 3 
Will constrain atom 1 coordinate 1 
Will constrain atom 1 coordinate 2 
Will constrain atom 1 coordinate 3 
The first mode is                       ....    0
The number of degrees of freedom        ....    1
Storing new coordinates                 .... done

    -----------------------------------------------------------------
                    Redundant Internal Coordinates


    -----------------------------------------------------------------
         Definition                    Initial Value    Approx d2E/dq
    -----------------------------------------------------------------
      1. B(Ar  1,Ar  0)                  2.8000         0.000937 C 
    -----------------------------------------------------------------

Number of atoms                         .... 2
Number of degrees of freedom            .... 1


         *************************************************************
         *                GEOMETRY OPTIMIZATION CYCLE   1            *
         *************************************************************
---------------------------------
CARTESIAN COORDINATES (ANGSTROEM)
---------------------------------
  Ar     0.400000    0.000000    0.000000
  Ar     3.200000    0.000000    0.000000

----------------------------
CARTESIAN COORDINATES (A.U.)
----------------------------
  NO LB      ZA    FRAG     MASS         X           Y           Z
   0 Ar   18.0000    0    39.948    0.755890    0.000000    0.000000
   1 Ar   18.0000    0    39.948    6.047124    0.000000    0.000000

--------------------------------
INTERNAL COORDINATES (ANGSTROEM)
--------------------------------
 Ar     0   0   0     0.000000000000     0.00000000     0.00000000
 Ar     1   0   0     3.600000000000     0.00000000     0.00000000

---------------------------
INTERNAL COORDINATES (A.U.)
---------------------------
 Ar     0   0   0     0.000000000000     0.00000000     0.00000000
 Ar     1   0   0     6.803014082117     0.00000000     0.00000000

---------------------
BASIS SET INFORMATION
---------------------
There are 1 groups of distinct atoms

 Group   1 Type Ar  : 42s17p3d2f contracted to 6s5p3d2f pattern {131313111/77111/111/11}

Atom   0Ar   basis set group =>   1
Atom   1Ar   basis set group =>   1


           ************************************************************
           *        Program running with 2 parallel MPI-processes     *
           *              working on a common directory               *
           ************************************************************
------------------------------------------------------------------------------
                             ORCA STARTUP CALCULATIONS
------------------------------------------------------------------------------
------------------------------------------------------------------------------
                   ___                                                        
                  /   \      - P O W E R E D   B Y -                         
                 /     \                                                     
                 |  |  |   _    _      __       _____    __    __             
                 |  |  |  | |  | |    /  \     |  _  \  |  |  /  |          
                  \  \/   | |  | |   /    \    | | | |  |  | /  /          
                 / \  \   | |__| |  /  /\  \   | |_| |  |  |/  /          
                |  |  |   |  __  | /  /__\  \  |    /   |      \           
                |  |  |   | |  | | |   __   |  |    \   |  |\   \          
                \     /   | |  | | |  |  |  |  | |\  \  |  | \   \       
                 \___/    |_|  |_| |__|  |__|  |_| \__\ |__|  \__/        
                                                                              
                      - O R C A' S   B I G   F R I E N D -                    
                                      &                                       
                       - I N T E G R A L  F E E D E R -                       
                                                                              
 v1 FN, 2020, v2 2021, v3 2022-2024                                           
------------------------------------------------------------------------------


----------------------
SHARK INTEGRAL PACKAGE
----------------------

Number of atoms                             ...      2
Number of basis functions                   ...    150
Number of shells                            ...     62
Maximum angular momentum                    ...      3
Integral batch strategy                     ... SHARK/LIBINT Hybrid
RI-J (if used) integral strategy            ... SPLIT-RIJ (Revised 2003 algorithm where possible)
Printlevel                                  ...      1
Contraction scheme used                     ... PARTIAL GENERAL contraction
Prescreening option                         ... SCHWARTZ
   Thresh                                   ... 2.500e-11
   Tcut                                     ... 2.500e-12
   Tpresel                                  ... 2.500e-12 
Coulomb Range Separation                    ... NOT USED
Exchange Range Separation                   ... NOT USED
Multipole approximations                    ... NOT USED
Finite Nucleus Model                        ... NOT USED
CABS basis                                  ... NOT available
Auxiliary Coulomb fitting basis             ... NOT available
Auxiliary J/K fitting basis                 ... NOT available
Auxiliary Correlation fitting basis         ... NOT available
Auxiliary 'external' fitting basis          ... NOT available

Checking pre-screening integrals            ... done (  0.0 sec) Dimension = 62
Save PGC pre-screening integrals            ... done (  0.0 sec) Dimension = 62
Calculate PGC overlap integrals             ... done (  0.0 sec) Dimension = 32
Calculating pre-screening integrals (ORCA)  ... done (  0.1 sec) Dimension = 32
Check shell pair data                       ... done (  0.0 sec)
Shell pair information
Shell pair cut-off parameter TPreSel        ...   2.5e-12
Total number of shell pairs                 ...      1953
Shell pairs after pre-screening             ...      1535
Total number of primitive shell pairs       ...      1953
Primitive shell pairs kept                  ...      1535
          la=0 lb=0:    362 shell pairs
          la=1 lb=0:    464 shell pairs
          la=1 lb=1:    166 shell pairs
          la=2 lb=0:    172 shell pairs
          la=2 lb=1:    112 shell pairs
          la=2 lb=2:     21 shell pairs
          la=3 lb=0:    124 shell pairs
          la=3 lb=1:     80 shell pairs
          la=3 lb=2:     24 shell pairs
          la=3 lb=3:     10 shell pairs

Calculating one electron integrals          ... done (  0.0 sec)
Calculating Nuclear repulsion               ... done (  0.0 sec) ENN=     61.233362732340 Eh

Diagonalization of the overlap matrix:
Smallest eigenvalue                        ... 6.426e-03
Time for diagonalization                   ...    0.001 sec
Threshold for overlap eigenvalues          ... 1.000e-07
Number of eigenvalues below threshold      ... 0
Time for construction of square roots      ...    0.001 sec
Total time needed                          ...    0.002 sec

-------------------
DFT GRID GENERATION
-------------------

General Integration Accuracy     IntAcc      ... 4.388
Radial Grid Type                 RadialGrid  ... OptM3 with GC (2021)
Angular Grid (max. ang.)         AngularGrid ... 4 (Lebedev-302)
Angular grid pruning method      GridPruning ... 4 (adaptive)
Weight generation scheme         WeightScheme... mBecke (2022)
Basis function cutoff            BFCut       ... 1.0000e-11
Integration weight cutoff        WCut        ... 1.0000e-14
Partially contracted basis set               ... off
Rotationally invariant grid construction     ... off
Angular grids for H and He will be reduced by one unit

Total number of grid points                  ...    14720
Total number of batches                      ...      232
Average number of points per batch           ...       63
Average number of grid points per atom       ...     7360

---------------------
SHARK GRID GENERATION
---------------------

General Integration Accuracy     IntAcc      ... 4.388
Radial Grid Type                 RadialGrid  ... OptM3 with GC (2021)
Angular Grid (max. ang.)         AngularGrid ... 4 (Lebedev-302)
Angular grid pruning method      GridPruning ... 4 (adaptive)
Weight generation scheme         WeightScheme... mBecke (2022)
Basis function cutoff            BFCut       ... 1.0000e-11
Integration weight cutoff        WCut        ... 1.0000e-14
Partially contracted basis set               ... off
Rotationally invariant grid construction     ... off
Angular grids for H and He will be reduced by one unit
Core-polarized basis detected: some atoms will have their core
                               angular grid increased.
Steep s-basis detected: some atoms will have their radial
                        grid points doubled.

Total number of grid points                  ...    38678
Total number of batches                      ...      606
Average number of points per batch           ...       63
Average number of grid points per atom       ...    19339
Initializing property integral containers    ... done (  0.0 sec)

SHARK setup successfully completed in   0.9 seconds

Maximum memory used throughout the entire STARTUP-calculation: 49.0 MB


           ************************************************************
           *        Program running with 2 parallel MPI-processes     *
           *              working on a common directory               *
           ************************************************************
-------------------------------------------------------------------------------
                                 ORCA GUESS
                   Start orbitals & Density for SCF / CASSCF
-------------------------------------------------------------------------------

------------
SCF SETTINGS
------------
Hamiltonian:
 Ab initio Hamiltonian  Method          .... Hartree-Fock(GTOs)


General Settings:
 Integral files         IntName         .... AR2
 Hartree-Fock type      HFTyp           .... RHF
 Total Charge           Charge          ....    0
 Multiplicity           Mult            ....    1
 Number of Electrons    NEL             ....   36
 Basis Dimension        Dim             ....  100
 Nuclear Repulsion      ENuc            ....     61.2333627323 Eh

Convergence Acceleration:
 AO-DIIS                CNVDIIS         .... on
   Start iteration      DIISMaxIt       ....    12
   Startup error        DIISStart       ....  0.200000
   # of expansion vecs  DIISMaxEq       ....     5
   Bias factor          DIISBfac        ....   1.050
   Max. coefficient     DIISMaxC        ....  10.000
 MO-DIIS                CNVKDIIS        .... off
 Trust-Rad. Augm. Hess. CNVTRAH         .... auto
   Auto Start mean grad. ratio tolernc. ....  1.125000
   Auto Start start iteration           ....    50
   Auto Start num. interpolation iter.  ....    10
   Max. Number of Micro iterations      ....    24
   Max. Number of Macro iterations      .... Maxiter - #DIIS iter
   Number of Davidson start vectors     ....     2
   Converg. threshold    (grad. norm)   ....   1.000e-05
   Grad. Scal. Fac. for Micro threshold ....   0.100
   Minimum threshold for Micro iter.    ....   1.000e-02
   NR start threshold (gradient norm)   ....   1.000e-04
   Initial trust radius                 ....   0.400
   Minimum AH scaling param. (alpha)    ....   1.000
   Maximum AH scaling param. (alpha)    .... 1000.000
   Quad. conv. algorithm                .... NR
   White noise on init. David. guess    .... on
   Maximum white noise                  ....   0.010
   Pseudo random numbers                .... off
   Inactive MOs                         .... canonical
   Orbital update algorithm             .... Taylor
   Preconditioner                       .... Diag
   Full preconditioner red. dimension   ....   250
 SOSCF                  CNVSOSCF        .... on
   Start iteration      SOSCFMaxIt      ....   150
   Startup grad/error   SOSCFStart      ....  0.003300
   Hessian update       SOSCFHessUp     .... L-BFGS
 Level Shifting         CNVShift        .... on
   Level shift para.    LevelShift      ....    0.2500
   Turn off err/grad.   ShiftErr        ....    0.0010
 Zerner damping         CNVZerner       .... off
 Static damping         CNVDamp         .... on
   Fraction old density DampFac         ....    0.7000
   Max. Damping (<1)    DampMax         ....    0.9800
   Min. Damping (>=0)   DampMin         ....    0.0000
   Turn off err/grad.   DampErr         ....    0.1000

SCF Procedure:
 Maximum # iterations   MaxIter         ....   125
 SCF integral mode      SCFMode         .... Direct
   Integral package                     .... SHARK and LIBINT hybrid scheme
 Reset frequency        DirectResetFreq ....    20
 Integral Threshold     Thresh          ....  2.500e-11 Eh
 Primitive CutOff       TCut            ....  2.500e-12 Eh

Convergence Tolerance:
 Convergence Check Mode ConvCheckMode   .... Total+1el-Energy
 Convergence forced     ConvForced      .... 1
 Energy Change          TolE            ....  1.000e-08 Eh
 1-El. energy change                    ....  1.000e-05 Eh
 Orbital Gradient       TolG            ....  1.000e-05
 Orbital Rotation angle TolX            ....  1.000e-05
 DIIS Error             TolErr          ....  5.000e-07

------------------------------
INITIAL GUESS: MODEL POTENTIAL
------------------------------
Loading Hartree-Fock densities                     ... done
Calculating cut-offs                               ... done
Initializing the effective Hamiltonian             ... done
Setting up the integral package (SHARK)            ... done
Starting the Coulomb interaction                   ... done (   0.0 sec)
Making the grid                                    ... done (   0.0 sec)
Mapping shells                                     ... done
Starting the XC term evaluation                    ... done (   0.0 sec)
Transforming the Hamiltonian                       ... done (   0.0 sec)
Diagonalizing the Hamiltonian                      ... done (   0.0 sec)
Back transforming the eigenvectors                 ... done (   0.0 sec)
Now organizing SCF variables                       ... done
                      ------------------
                      INITIAL GUESS DONE (   0.0 sec)
                      ------------------
             **** ENERGY FILE WAS UPDATED (AR2.en.tmp) ****
Finished Guess after   0.2 sec
Maximum memory used throughout the entire GUESS-calculation: 7.8 MB


           ************************************************************
           *        Program running with 2 parallel MPI-processes     *
           *              working on a common directory               *
           ************************************************************

-------------------------------------------------------------------------------------------
                                      ORCA LEAN-SCF
                              memory conserving SCF solver
-------------------------------------------------------------------------------------------

----------------------------------------D-I-I-S--------------------------------------------
Iteration    Energy (Eh)           Delta-E    RMSDP     MaxDP     DIISErr   Damp  Time(sec)
-------------------------------------------------------------------------------------------
               ***  Starting incremental Fock matrix formation  ***
    1    -1053.5853496667659783     0.00e+00  1.37e-03  4.44e-02  1.48e-01  0.700   0.5
    2    -1053.5934405797559066    -8.09e-03  1.02e-03  3.19e-02  1.06e-01  0.700   0.5
                               ***Turning on AO-DIIS***
    3    -1053.5992805318271621    -5.84e-03  7.86e-04  2.31e-02  7.53e-02  0.700   0.4
    4    -1053.6034622386964656    -4.18e-03  1.88e-03  5.42e-02  5.30e-02  0.000   0.4
                              *** Initializing SOSCF ***
---------------------------------------S-O-S-C-F--------------------------------------
Iteration    Energy (Eh)           Delta-E    RMSDP     MaxDP     MaxGrad    Time(sec)
--------------------------------------------------------------------------------------
    5    -1053.6136130412403418    -1.02e-02  5.11e-05  1.03e-03  1.04e-03     0.5
               *** Restarting incremental Fock matrix formation ***
    6    -1053.6136194477940080    -6.41e-06  2.11e-05  3.35e-04  2.28e-04     0.5
    7    -1053.6136203966643734    -9.49e-07  7.88e-06  1.45e-04  5.63e-05     0.4
    8    -1053.6136204590829948    -6.24e-08  4.86e-07  8.79e-06  8.11e-06     0.3
    9    -1053.6136204596571133    -5.74e-10  1.17e-07  1.56e-06  1.27e-06     0.3
                 **** Energy Check signals convergence ****

               *****************************************************
               *                     SUCCESS                       *
               *           SCF CONVERGED AFTER   9 CYCLES          *
               *****************************************************

             **** ENERGY FILE WAS UPDATED (AR2.en.tmp) ****

----------------
TOTAL SCF ENERGY
----------------

Total Energy       :      -1053.61362045965711 Eh          -28670.28418 eV

Components:
Nuclear Repulsion  :         61.23336273234015 Eh            1666.24451 eV
Electronic Energy  :      -1114.84698319199720 Eh          -30336.52869 eV
One Electron Energy:      -1578.97737029818882 Eh          -42966.15860 eV
Two Electron Energy:        464.13038710619162 Eh           12629.62991 eV

Virial components:
Potential Energy   :      -2107.31824199763332 Eh          -57343.04463 eV
Kinetic Energy     :       1053.70462153797621 Eh           28672.76045 eV
Virial Ratio       :          1.99991363701320

---------------
SCF CONVERGENCE
---------------

  Last Energy change         ...    5.7412e-10  Tolerance :   1.0000e-08
  Last MAX-Density change    ...    1.5553e-06  Tolerance :   1.0000e-07
  Last RMS-Density change    ...    1.1655e-07  Tolerance :   5.0000e-09
  Last DIIS Error            ...    1.0386e-03  Tolerance :   5.0000e-07
  Last Orbital Gradient      ...    1.2677e-06  Tolerance :   1.0000e-05
  Last Orbital Rotation      ...    1.5325e-06  Tolerance :   1.0000e-05


----------------
ORBITAL ENERGIES
----------------

  NO   OCC          E(Eh)            E(eV) 
   0   2.0000    -118.607055     -3227.4621 
   1   2.0000    -118.607055     -3227.4621 
   2   2.0000     -12.319032      -335.2179 
   3   2.0000     -12.319025      -335.2177 
   4   2.0000      -9.567964      -260.3575 
   5   2.0000      -9.567963      -260.3575 
   6   2.0000      -9.567903      -260.3559 
   7   2.0000      -9.567903      -260.3559 
   8   2.0000      -9.567901      -260.3558 
   9   2.0000      -9.567901      -260.3558 
  10   2.0000      -1.286858       -35.0172 
  11   2.0000      -1.268677       -34.5225 
  12   2.0000      -0.632530       -17.2120 
  13   2.0000      -0.598733       -16.2923 
  14   2.0000      -0.598733       -16.2923 
  15   2.0000      -0.581970       -15.8362 
  16   2.0000      -0.581970       -15.8362 
  17   2.0000      -0.549124       -14.9424 
  18   0.0000       0.102956         2.8016 
  19   0.0000       0.123364         3.3569 
  20   0.0000       0.123364         3.3569 
  21   0.0000       0.132112         3.5949 
  22   0.0000       0.156512         4.2589 
  23   0.0000       0.156512         4.2589 
  24   0.0000       0.168254         4.5784 
  25   0.0000       0.282192         7.6788 
  26   0.0000       0.365913         9.9570 
  27   0.0000       0.365913         9.9570 
  28   0.0000       0.381066        10.3693 
*Only the first 10 virtual orbitals were printed.

                    ********************************
                    * MULLIKEN POPULATION ANALYSIS *
                    ********************************

-----------------------
MULLIKEN ATOMIC CHARGES
-----------------------
   0 Ar:    0.000000
   1 Ar:   -0.000000
Sum of atomic charges:    0.0000000

--------------------------------
MULLIKEN REDUCED ORBITAL CHARGES
--------------------------------
  0 Ars       :     5.996334  s :     5.996334
      pz      :     3.999660  p :    12.002056
      px      :     4.002737
      py      :     3.999660
      dz2     :     0.000125  d :     0.001095
      dxz     :     0.000298
      dyz     :     0.000000
      dx2y2   :     0.000374
      dxy     :     0.000298
      f0      :     0.000016  f :     0.000515
      f+1     :     0.000161
      f-1     :     0.000003
      f+2     :     0.000027
      f-2     :     0.000000
      f+3     :     0.000268
      f-3     :     0.000040

  1 Ars       :     5.996334  s :     5.996334
      pz      :     3.999660  p :    12.002056
      px      :     4.002737
      py      :     3.999660
      dz2     :     0.000125  d :     0.001095
      dxz     :     0.000298
      dyz     :     0.000000
      dx2y2   :     0.000374
      dxy     :     0.000298
      f0      :     0.000016  f :     0.000515
      f+1     :     0.000161
      f-1     :     0.000003
      f+2     :     0.000027
      f-2     :     0.000000
      f+3     :     0.000268
      f-3     :     0.000040



                     *******************************
                     * LOEWDIN POPULATION ANALYSIS *
                     *******************************

----------------------
LOEWDIN ATOMIC CHARGES
----------------------
   0 Ar:    0.000000
   1 Ar:    0.000000

-------------------------------
LOEWDIN REDUCED ORBITAL CHARGES
-------------------------------
  0 Ars       :     5.966435  s :     5.966435
      pz      :     3.995326  p :    11.976118
      px      :     3.985466
      py      :     3.995326
      dz2     :     0.010900  d :     0.052059
      dxz     :     0.004229
      dyz     :     0.000000
      dx2y2   :     0.032700
      dxy     :     0.004229
      f0      :     0.000167  f :     0.005389
      f+1     :     0.001687
      f-1     :     0.000028
      f+2     :     0.000278
      f-2     :     0.000000
      f+3     :     0.002812
      f-3     :     0.000417

  1 Ars       :     5.966435  s :     5.966435
      pz      :     3.995326  p :    11.976118
      px      :     3.985466
      py      :     3.995326
      dz2     :     0.010900  d :     0.052059
      dxz     :     0.004229
      dyz     :     0.000000
      dx2y2   :     0.032700
      dxy     :     0.004229
      f0      :     0.000167  f :     0.005389
      f+1     :     0.001687
      f-1     :     0.000028
      f+2     :     0.000278
      f-2     :     0.000000
      f+3     :     0.002812
      f-3     :     0.000417



                      *****************************
                      * MAYER POPULATION ANALYSIS *
                      *****************************

  NA   - Mulliken gross atomic population
  ZA   - Total nuclear charge
  QA   - Mulliken gross atomic charge
  VA   - Mayer's total valence
  BVA  - Mayer's bonded valence
  FA   - Mayer's free valence

  ATOM       NA         ZA         QA         VA         BVA        FA
  0 Ar    18.0000    18.0000     0.0000    -0.0335    -0.0335    -0.0000
  1 Ar    18.0000    18.0000    -0.0000    -0.0335    -0.0335    -0.0000

  Mayer bond orders larger than 0.100000
  => no bond orders to print

-------
TIMINGS
-------

Total SCF time: 0 days 0 hours 0 min 3 sec 

Total time                  ....       3.804 sec
Sum of individual times     ....       3.797 sec  ( 99.8%)

SCF preparation             ....       0.133 sec  (  3.5%)
Fock matrix formation       ....       3.614 sec  ( 95.0%)
  Startup                   ....       0.002 sec  (  0.1% of F)
  Coulomb+Exchange Fock     ....       3.605 sec  ( 99.8% of F)
Diagonalization             ....       0.000 sec  (  0.0%)
Density matrix formation    ....       0.005 sec  (  0.1%)
Total Energy calculation    ....       0.004 sec  (  0.1%)
Population analysis         ....       0.003 sec  (  0.1%)
Orbital Transformation      ....       0.005 sec  (  0.1%)
Orbital Orthonormalization  ....       0.000 sec  (  0.0%)
DIIS solution               ....       0.024 sec  (  0.6%)
SOSCF solution              ....       0.010 sec  (  0.3%)
Finished LeanSCF after   3.8 sec

Maximum memory used throughout the entire LEANSCF-calculation: 12.1 MB


           ************************************************************
           *        Program running with 2 parallel MPI-processes     *
           *              working on a common directory               *
           ************************************************************

------------------------------------------------------------------------------
                                ORCA  MP2 
------------------------------------------------------------------------------

NOTE: Switching SHARK to Segmented Contraction for MP2
      If that is not desired please turn off the PGCFlag in the input (%shark PGCFlag 0 end)
      Number of basis functions in BAS before restore: 150
      Number of basis functions in BAS after restore : 100
Freezing NCore=20 chemical core electrons
MP2 will be done in the AO integral direct mode
The Q1-step will be done using symmetric double matrices
Dimension of the basis                    ...  100
Memory devoted for MP2                    ... 4096 MB   
Memory needed for all in one shot         ...   16 MB
Number of MOs that can be treated together... 1062      
MP2 density construction                  ... relaxed
The MP2 gradient is requested => amplitudes will be stored on disk
Total number of MOs              ...    8
Number of MOs treated per batch  ...    4 
Number of batches necessary      ...    1 
OPERATORS   0/  0 PASS   0
OPERATORS   0/  0 PASS   1
-----------------------------------------------
 MP2 CORRELATION ENERGY   :     -0.426728002 Eh
-----------------------------------------------


---------------------
MP2 DENSITY FORMATION
---------------------

Completing the external part of the density      ... done
Storing the unrelaxed density                    ... done

Calculating G(D)                                 ... done
Completing the Lagrangian                        ... done
Solving the Z-vector equations                   ... 
-------------------
SHARK CP-SCF DRIVER
-------------------

Dimension of the orbital basis          ...    100
Dimension of the CPSCF-problem          ...   1476
Number of operators                     ...      1
Max. number of iterations               ...    128
Convergence Tolerance                   ... 1.0e-04
Number of perturbations                 ...      1
Perturbation type                       ... REAL

----------------------------
POPLE LINEAR EQUATION SOLVER
----------------------------

  ITERATION   0:   ||err||_max =   1.0919e-02 (   0.9 sec)
  ITERATION   1:   ||err||_max =   9.5328e-04 (   0.9 sec)
  ITERATION   2:   ||err||_max =   1.4446e-04 (   0.9 sec)
  ITERATION   3:   ||err||_max =   4.5120e-05 (   0.9 sec)
                                                 ... done
Finalizing the relaxed density                   ... done
Transforming P to the AO basis                   ... done
Storing the relaxed density                      ... done

------------------------------------
ENERGY WEIGHTED DENSITY FINALIZATION
------------------------------------

Gathering the parts of the W-matrix              ...                                                      done
Forming the Z-density                            ... done
Transforming Z to the AO basis                   ... done
Calculating G(Z)                                 ... done
Finalizing the W-matrix                          ...                                                      done
Transforming W to the AO basis and storing       ... done

                *********************************************
                * UNRELAXED MP2 DENSITY POPULATION ANALYSIS *
                *********************************************

------------------------------------------------------------------------------
                           ORCA POPULATION ANALYSIS
------------------------------------------------------------------------------
Input electron density              ... AR2.pmp2ur
BaseName (.gbw .S,...)              ... AR2

                    ********************************
                    * MULLIKEN POPULATION ANALYSIS *
                    ********************************

-----------------------
MULLIKEN ATOMIC CHARGES
-----------------------
   0 Ar:    0.000000
   1 Ar:   -0.000000
Sum of atomic charges:    0.0000000

--------------------------------
MULLIKEN REDUCED ORBITAL CHARGES
--------------------------------
  0 Ars       :     5.987914  s :     5.987914
      pz      :     3.970464  p :    11.914034
      px      :     3.973105
      py      :     3.970464
      dz2     :     0.017567  d :     0.088631
      dxz     :     0.017902
      dyz     :     0.017440
      dx2y2   :     0.017820
      dxy     :     0.017902
      f0      :     0.001282  f :     0.009421
      f+1     :     0.001433
      f-1     :     0.001253
      f+2     :     0.001306
      f-2     :     0.001267
      f+3     :     0.001544
      f-3     :     0.001336
  1 Ars       :     5.987914  s :     5.987914
      pz      :     3.970464  p :    11.914034
      px      :     3.973105
      py      :     3.970464
      dz2     :     0.017567  d :     0.088631
      dxz     :     0.017902
      dyz     :     0.017440
      dx2y2   :     0.017820
      dxy     :     0.017902
      f0      :     0.001282  f :     0.009421
      f+1     :     0.001433
      f-1     :     0.001253
      f+2     :     0.001306
      f-2     :     0.001267
      f+3     :     0.001544
      f-3     :     0.001336


                     *******************************
                     * LOEWDIN POPULATION ANALYSIS *
                     *******************************

----------------------
LOEWDIN ATOMIC CHARGES
----------------------
   0 Ar:    0.000000
   1 Ar:    0.000000

-------------------------------
LOEWDIN REDUCED ORBITAL CHARGES
-------------------------------
  0 Ars       :     5.958024  s :     5.958024
      pz      :     3.966128  p :    11.888263
      px      :     3.956006
      py      :     3.966128
      dz2     :     0.028286  d :     0.139358
      dxz     :     0.021827
      dyz     :     0.017440
      dx2y2   :     0.049979
      dxy     :     0.021827
      f0      :     0.001437  f :     0.014354
      f+1     :     0.002974
      f-1     :     0.001279
      f+2     :     0.001563
      f-2     :     0.001267
      f+3     :     0.004113
      f-3     :     0.001721
  1 Ars       :     5.958024  s :     5.958024
      pz      :     3.966128  p :    11.888263
      px      :     3.956006
      py      :     3.966128
      dz2     :     0.028286  d :     0.139358
      dxz     :     0.021827
      dyz     :     0.017440
      dx2y2   :     0.049979
      dxy     :     0.021827
      f0      :     0.001437  f :     0.014354
      f+1     :     0.002974
      f-1     :     0.001279
      f+2     :     0.001563
      f-2     :     0.001267
      f+3     :     0.004113
      f-3     :     0.001721


                      *****************************
                      * MAYER POPULATION ANALYSIS *
                      *****************************

  NA   - Mulliken gross atomic population
  ZA   - Total nuclear charge
  QA   - Mulliken gross atomic charge
  VA   - Mayer's total valence
  BVA  - Mayer's bonded valence
  FA   - Mayer's free valence

  ATOM       NA         ZA         QA         VA         BVA        FA
  0 Ar    18.0000    18.0000     0.0000     0.4671    -0.0321     0.4992
  1 Ar    18.0000    18.0000    -0.0000     0.4671    -0.0321     0.4992

  Mayer bond orders larger than 0.100000
  => No bond orders to print


                *******************************************
                * RELAXED MP2 DENSITY POPULATION ANALYSIS *
                *******************************************

------------------------------------------------------------------------------
                           ORCA POPULATION ANALYSIS
------------------------------------------------------------------------------
Input electron density              ... AR2.pmp2re
BaseName (.gbw .S,...)              ... AR2

                    ********************************
                    * MULLIKEN POPULATION ANALYSIS *
                    ********************************

-----------------------
MULLIKEN ATOMIC CHARGES
-----------------------
   0 Ar:    0.000000
   1 Ar:   -0.000000
Sum of atomic charges:   -0.0000000

--------------------------------
MULLIKEN REDUCED ORBITAL CHARGES
--------------------------------
  0 Ars       :     5.988292  s :     5.988292
      pz      :     3.970266  p :    11.912299
      px      :     3.971768
      py      :     3.970266
      dz2     :     0.017800  d :     0.089933
      dxz     :     0.018087
      dyz     :     0.017440
      dx2y2   :     0.018520
      dxy     :     0.018087
      f0      :     0.001288  f :     0.009476
      f+1     :     0.001443
      f-1     :     0.001254
      f+2     :     0.001315
      f-2     :     0.001267
      f+3     :     0.001560
      f-3     :     0.001349
  1 Ars       :     5.988292  s :     5.988292
      pz      :     3.970266  p :    11.912299
      px      :     3.971768
      py      :     3.970266
      dz2     :     0.017800  d :     0.089933
      dxz     :     0.018087
      dyz     :     0.017440
      dx2y2   :     0.018520
      dxy     :     0.018087
      f0      :     0.001288  f :     0.009476
      f+1     :     0.001443
      f-1     :     0.001254
      f+2     :     0.001315
      f-2     :     0.001267
      f+3     :     0.001560
      f-3     :     0.001349


                     *******************************
                     * LOEWDIN POPULATION ANALYSIS *
                     *******************************

----------------------
LOEWDIN ATOMIC CHARGES
----------------------
   0 Ar:    0.000000
   1 Ar:    0.000000

-------------------------------
LOEWDIN REDUCED ORBITAL CHARGES
-------------------------------
  0 Ars       :     5.958853  s :     5.958853
      pz      :     3.965905  p :    11.886615
      px      :     3.954805
      py      :     3.965905
      dz2     :     0.028390  d :     0.140193
      dxz     :     0.022036
      dyz     :     0.017440
      dx2y2   :     0.050291
      dxy     :     0.022036
      f0      :     0.001442  f :     0.014338
      f+1     :     0.002958
      f-1     :     0.001280
      f+2     :     0.001572
      f-2     :     0.001267
      f+3     :     0.004085
      f-3     :     0.001735
  1 Ars       :     5.958853  s :     5.958853
      pz      :     3.965905  p :    11.886615
      px      :     3.954805
      py      :     3.965905
      dz2     :     0.028390  d :     0.140193
      dxz     :     0.022036
      dyz     :     0.017440
      dx2y2   :     0.050291
      dxy     :     0.022036
      f0      :     0.001442  f :     0.014338
      f+1     :     0.002958
      f-1     :     0.001280
      f+2     :     0.001572
      f-2     :     0.001267
      f+3     :     0.004085
      f-3     :     0.001735


                      *****************************
                      * MAYER POPULATION ANALYSIS *
                      *****************************

  NA   - Mulliken gross atomic population
  ZA   - Total nuclear charge
  QA   - Mulliken gross atomic charge
  VA   - Mayer's total valence
  BVA  - Mayer's bonded valence
  FA   - Mayer's free valence

  ATOM       NA         ZA         QA         VA         BVA        FA
  0 Ar    18.0000    18.0000     0.0000     0.4772    -0.0215     0.4986
  1 Ar    18.0000    18.0000    -0.0000     0.4772    -0.0215     0.4986

  Mayer bond orders larger than 0.100000
  => No bond orders to print


----------------------------------
MP2 DERIVATIVE INTEGRAL GENERATION
----------------------------------

Input SCF Electron Density              ... AR2.scfp
Input Correlated Electron Density       ... AR2.pmp2re
Input Energy Weighted Density           ... AR2.wmp2.tmp
Input Wavefunction Amplitudes           ... AR2.mp2tsaa.tmp

Nuclear repulsion gradient              ... done (  0.0 sec)
HCore & Overlap gradient  (SHARK)       ... done (  0.0 sec)
Analytic two-electron gradient terms    ... 
  Batch handling in the gradient evaluation:
  General contraction                   ... not used
  Memory available                      ... 4086.7 MB
  Memory per occupied orbital in Q2     ...    0.6 MB
  Memory per occupied orbital in Q3     ...    0.0 MB
  Total memory requirement per |i>      ...    0.6 MB
  Number of orbitals treated per batch  ...      8
  Number of batches to be done          ...      1
done (  4.6 sec)

---------------------------------------
MP2 TOTAL ENERGY:    -1054.040348462 Eh
---------------------------------------

The final MP2 gradient
  0:   0.01931648  -0.00000000  -0.00000000
  1:  -0.01931648   0.00000000   0.00000000

-----------------------------------
NORM OF THE MP2 GRADIENT:  0.027318
-----------------------------------

Maximum memory used throughout the entire MP2-calculation: 71.9 MB

-------------------------   --------------------
FINAL SINGLE POINT ENERGY     -1054.040348461772
-------------------------   --------------------

------------------------------------------------------------------------------
                         ORCA GEOMETRY RELAXATION STEP
------------------------------------------------------------------------------

Reading the OPT-File                    .... done
Getting information on internals        .... done
Copying old internal coords+grads       .... done
Making the new internal coordinates     .... (2022 redundants) done
Validating the new internal coordinates .... (2022 redundants) done
Calculating the B-matrix                .... done
Calculating the G,G- and P matrices     .... done
Transforming gradient to internals      .... done
Projecting the internal gradient        .... done
Number of atoms                         ....   2
Number of internal coordinates          ....   1
Current Energy                          .... -1054.040348462 Eh
Current gradient norm                   ....     0.027317624 Eh/bohr
Maximum allowed component of the step   ....  0.300
Current trust radius                    ....  0.300
Evaluating the initial hessian          ....  (Almloef) done
Projecting the Hessian                  .... done
Forming the augmented Hessian           .... done
Diagonalizing the augmented Hessian     .... done
Last element of RFO vector              ....  1.000000000
Lowest eigenvalues of augmented Hessian:
  0.000000000
Length of the computed step             ....  0.000000000
The final length of the internal step   ....  0.000000000
Converting the step to Cartesian space:
 Initial RMS(Int)=    0.0000000000
Transforming coordinates:
 Iter   0:  RMS(Cart)=    0.0000000000 RMS(Int)=    0.0000000000
Imposing constraints:
 Iter   0:  RMS(Cart)=    0.0000000000 RMS(Int)=    0.0000000000
CONVERGED
done
Storing new coordinates                 .... done

                                .--------------------.
          ----------------------|Geometry convergence|-------------------------
          Item                value                   Tolerance       Converged
          ---------------------------------------------------------------------
          RMS gradient        0.0000000000            0.0001000000      YES
          MAX gradient        0.0000000000            0.0003000000      YES
          RMS step            0.0000000000            0.0020000000      YES
          MAX step            0.0000000000            0.0040000000      YES
          ........................................................
          Max(Bonds)      0.0000      Max(Angles)    0.00
          Max(Dihed)        0.00      Max(Improp)    0.00
          ---------------------------------------------------------------------

                    ***********************HURRAY********************
                    ***        THE OPTIMIZATION HAS CONVERGED     ***
                    *************************************************


    ---------------------------------------------------------------------------
                         Redundant Internal Coordinates

                          --- Optimized Parameters ---  
                            (Angstroem and degrees)

        Definition                    OldVal   dE/dq     Step     FinalVal
    ----------------------------------------------------------------------------
     1. B(Ar  1,Ar  0)                2.8000 -0.019316  0.0000    2.8000 C 
    ----------------------------------------------------------------------------

Geometry step timings:
Preparation and reading OPT file:      0.000 s ( 9.070 %)
Internal coordinates            :      0.000 s ( 4.826 %)
B/P matrices and projection     :      0.000 s (15.174 %)
Hessian update/contruction      :      0.000 s (21.163 %)
Making the step                 :      0.000 s ( 9.302 %)
Converting the step to Cartesian:      0.000 s ( 7.500 %)
Storing new data                :      0.000 s ( 4.826 %)
Checking convergence            :      0.000 s ( 0.058 %)
Final printing                  :      0.000 s (26.860 %)
Total time                      :      0.002 s
                 *******************************************************
                 *** FINAL ENERGY EVALUATION AT THE STATIONARY POINT ***
                 ***               (AFTER    1 CYCLES)               ***
                 *******************************************************
---------------------------------
CARTESIAN COORDINATES (ANGSTROEM)
---------------------------------
  Ar     0.400000    0.000000    0.000000
  Ar     3.200000    0.000000    0.000000

----------------------------
CARTESIAN COORDINATES (A.U.)
----------------------------
  NO LB      ZA    FRAG     MASS         X           Y           Z
   0 Ar   18.0000    0    39.948    0.755890    0.000000    0.000000
   1 Ar   18.0000    0    39.948    6.047124    0.000000    0.000000

--------------------------------
INTERNAL COORDINATES (ANGSTROEM)
--------------------------------
 Ar     0   0   0     0.000000000000     0.00000000     0.00000000
 Ar     1   0   0     2.799999997365     0.00000000     0.00000000

---------------------------
INTERNAL COORDINATES (A.U.)
---------------------------
 Ar     0   0   0     0.000000000000     0.00000000     0.00000000
 Ar     1   0   0     5.291233170000     0.00000000     0.00000000

---------------------
BASIS SET INFORMATION
---------------------
There are 1 groups of distinct atoms

 Group   1 Type Ar  : 42s17p3d2f contracted to 6s5p3d2f pattern {131313111/77111/111/11}

Atom   0Ar   basis set group =>   1
Atom   1Ar   basis set group =>   1


           ************************************************************
           *        Program running with 2 parallel MPI-processes     *
           *              working on a common directory               *
           ************************************************************
------------------------------------------------------------------------------
                             ORCA STARTUP CALCULATIONS
------------------------------------------------------------------------------
------------------------------------------------------------------------------
                   ___                                                        
                  /   \      - P O W E R E D   B Y -                         
                 /     \                                                     
                 |  |  |   _    _      __       _____    __    __             
                 |  |  |  | |  | |    /  \     |  _  \  |  |  /  |          
                  \  \/   | |  | |   /    \    | | | |  |  | /  /          
                 / \  \   | |__| |  /  /\  \   | |_| |  |  |/  /          
                |  |  |   |  __  | /  /__\  \  |    /   |      \           
                |  |  |   | |  | | |   __   |  |    \   |  |\   \          
                \     /   | |  | | |  |  |  |  | |\  \  |  | \   \       
                 \___/    |_|  |_| |__|  |__|  |_| \__\ |__|  \__/        
                                                                              
                      - O R C A' S   B I G   F R I E N D -                    
                                      &                                       
                       - I N T E G R A L  F E E D E R -                       
                                                                              
 v1 FN, 2020, v2 2021, v3 2022-2024                                           
------------------------------------------------------------------------------


----------------------
SHARK INTEGRAL PACKAGE
----------------------

Number of atoms                             ...      2
Number of basis functions                   ...    150
Number of shells                            ...     62
Maximum angular momentum                    ...      3
Integral batch strategy                     ... SHARK/LIBINT Hybrid
RI-J (if used) integral strategy            ... SPLIT-RIJ (Revised 2003 algorithm where possible)
Printlevel                                  ...      1
Contraction scheme used                     ... PARTIAL GENERAL contraction
Prescreening option                         ... SCHWARTZ
   Thresh                                   ... 2.500e-11
   Tcut                                     ... 2.500e-12
   Tpresel                                  ... 2.500e-12 
Coulomb Range Separation                    ... NOT USED
Exchange Range Separation                   ... NOT USED
Multipole approximations                    ... NOT USED
Finite Nucleus Model                        ... NOT USED
CABS basis                                  ... NOT available
Auxiliary Coulomb fitting basis             ... NOT available
Auxiliary J/K fitting basis                 ... NOT available
Auxiliary Correlation fitting basis         ... NOT available
Auxiliary 'external' fitting basis          ... NOT available

Checking pre-screening integrals            ... done (  0.0 sec) Dimension = 62
Save PGC pre-screening integrals            ... done (  0.0 sec) Dimension = 62
Calculate PGC overlap integrals             ... done (  0.0 sec) Dimension = 32
Calculating pre-screening integrals (ORCA)  ... done (  0.1 sec) Dimension = 32
Check shell pair data                       ... done (  0.0 sec)
Shell pair information
Shell pair cut-off parameter TPreSel        ...   2.5e-12
Total number of shell pairs                 ...      1953
Shell pairs after pre-screening             ...      1535
Total number of primitive shell pairs       ...      1953
Primitive shell pairs kept                  ...      1535
          la=0 lb=0:    362 shell pairs
          la=1 lb=0:    464 shell pairs
          la=1 lb=1:    166 shell pairs
          la=2 lb=0:    172 shell pairs
          la=2 lb=1:    112 shell pairs
          la=2 lb=2:     21 shell pairs
          la=3 lb=0:    124 shell pairs
          la=3 lb=1:     80 shell pairs
          la=3 lb=2:     24 shell pairs
          la=3 lb=3:     10 shell pairs

Calculating one electron integrals          ... done (  0.0 sec)
Calculating Nuclear repulsion               ... done (  0.0 sec) ENN=     61.233362732340 Eh

Diagonalization of the overlap matrix:
Smallest eigenvalue                        ... 6.426e-03
Time for diagonalization                   ...    0.001 sec
Threshold for overlap eigenvalues          ... 1.000e-07
Number of eigenvalues below threshold      ... 0
Time for construction of square roots      ...    0.001 sec
Total time needed                          ...    0.002 sec

-------------------
DFT GRID GENERATION
-------------------

General Integration Accuracy     IntAcc      ... 4.388
Radial Grid Type                 RadialGrid  ... OptM3 with GC (2021)
Angular Grid (max. ang.)         AngularGrid ... 4 (Lebedev-302)
Angular grid pruning method      GridPruning ... 4 (adaptive)
Weight generation scheme         WeightScheme... mBecke (2022)
Basis function cutoff            BFCut       ... 1.0000e-11
Integration weight cutoff        WCut        ... 1.0000e-14
Partially contracted basis set               ... off
Rotationally invariant grid construction     ... off
Angular grids for H and He will be reduced by one unit

Total number of grid points                  ...    14720
Total number of batches                      ...      232
Average number of points per batch           ...       63
Average number of grid points per atom       ...     7360

---------------------
SHARK GRID GENERATION
---------------------

General Integration Accuracy     IntAcc      ... 4.388
Radial Grid Type                 RadialGrid  ... OptM3 with GC (2021)
Angular Grid (max. ang.)         AngularGrid ... 4 (Lebedev-302)
Angular grid pruning method      GridPruning ... 4 (adaptive)
Weight generation scheme         WeightScheme... mBecke (2022)
Basis function cutoff            BFCut       ... 1.0000e-11
Integration weight cutoff        WCut        ... 1.0000e-14
Partially contracted basis set               ... off
Rotationally invariant grid construction     ... off
Angular grids for H and He will be reduced by one unit
Core-polarized basis detected: some atoms will have their core
                               angular grid increased.
Steep s-basis detected: some atoms will have their radial
                        grid points doubled.

Total number of grid points                  ...    38678
Total number of batches                      ...      606
Average number of points per batch           ...       63
Average number of grid points per atom       ...    19339
Initializing property integral containers    ... done (  0.0 sec)

SHARK setup successfully completed in   1.0 seconds

Maximum memory used throughout the entire STARTUP-calculation: 49.0 MB


           ************************************************************
           *        Program running with 2 parallel MPI-processes     *
           *              working on a common directory               *
           ************************************************************
-------------------------------------------------------------------------------
                                 ORCA GUESS
                   Start orbitals & Density for SCF / CASSCF
-------------------------------------------------------------------------------

------------
SCF SETTINGS
------------
Hamiltonian:
 Ab initio Hamiltonian  Method          .... Hartree-Fock(GTOs)


General Settings:
 Integral files         IntName         .... AR2
 Hartree-Fock type      HFTyp           .... RHF
 Total Charge           Charge          ....    0
 Multiplicity           Mult            ....    1
 Number of Electrons    NEL             ....   36
 Basis Dimension        Dim             ....  100
 Nuclear Repulsion      ENuc            ....     61.2333627323 Eh

Convergence Acceleration:
 AO-DIIS                CNVDIIS         .... on
   Start iteration      DIISMaxIt       ....    12
   Startup error        DIISStart       ....  0.200000
   # of expansion vecs  DIISMaxEq       ....     5
   Bias factor          DIISBfac        ....   1.050
   Max. coefficient     DIISMaxC        ....  10.000
 MO-DIIS                CNVKDIIS        .... off
 Trust-Rad. Augm. Hess. CNVTRAH         .... auto
   Auto Start mean grad. ratio tolernc. ....  1.125000
   Auto Start start iteration           ....     1
   Auto Start num. interpolation iter.  ....    10
   Max. Number of Micro iterations      ....    24
   Max. Number of Macro iterations      .... Maxiter - #DIIS iter
   Number of Davidson start vectors     ....     2
   Converg. threshold    (grad. norm)   ....   1.000e-05
   Grad. Scal. Fac. for Micro threshold ....   0.100
   Minimum threshold for Micro iter.    ....   1.000e-02
   NR start threshold (gradient norm)   ....   1.000e-04
   Initial trust radius                 ....   0.400
   Minimum AH scaling param. (alpha)    ....   1.000
   Maximum AH scaling param. (alpha)    .... 1000.000
   Quad. conv. algorithm                .... NR
   White noise on init. David. guess    .... on
   Maximum white noise                  ....   0.010
   Pseudo random numbers                .... off
   Inactive MOs                         .... canonical
   Orbital update algorithm             .... Taylor
   Preconditioner                       .... Diag
   Full preconditioner red. dimension   ....   250
 SOSCF                  CNVSOSCF        .... on
   Start iteration      SOSCFMaxIt      ....   150
   Startup grad/error   SOSCFStart      ....  0.003300
   Hessian update       SOSCFHessUp     .... L-BFGS
 Level Shifting         CNVShift        .... on
   Level shift para.    LevelShift      ....    0.2500
   Turn off err/grad.   ShiftErr        ....    0.0010
 Zerner damping         CNVZerner       .... off
 Static damping         CNVDamp         .... on
   Fraction old density DampFac         ....    0.7000
   Max. Damping (<1)    DampMax         ....    0.9800
   Min. Damping (>=0)   DampMin         ....    0.0000
   Turn off err/grad.   DampErr         ....    0.1000

SCF Procedure:
 Maximum # iterations   MaxIter         ....   125
 SCF integral mode      SCFMode         .... Direct
   Integral package                     .... SHARK and LIBINT hybrid scheme
 Reset frequency        DirectResetFreq ....    20
 Integral Threshold     Thresh          ....  2.500e-11 Eh
 Primitive CutOff       TCut            ....  2.500e-12 Eh

Convergence Tolerance:
 Convergence Check Mode ConvCheckMode   .... Total+1el-Energy
 Convergence forced     ConvForced      .... 1
 Energy Change          TolE            ....  1.000e-08 Eh
 1-El. energy change                    ....  1.000e-05 Eh
 Orbital Gradient       TolG            ....  1.000e-05
 Orbital Rotation angle TolX            ....  1.000e-05
 DIIS Error             TolErr          ....  5.000e-07

---------------------
INITIAL GUESS: MOREAD
---------------------
Guess MOs are being read from file: AR2.gbw
Input Geometry matches current geometry (good)
Input basis set matches current basis set (good)
Occupation numbers will be reassigned to an Aufbau configuration
MOs were renormalized
MOs were reorthogonalized (Cholesky)
                      ------------------
                      INITIAL GUESS DONE (   0.0 sec)
                      ------------------
             **** ENERGY FILE WAS UPDATED (AR2.en.tmp) ****
Finished Guess after   0.1 sec
Maximum memory used throughout the entire GUESS-calculation: 7.9 MB


           ************************************************************
           *        Program running with 2 parallel MPI-processes     *
           *              working on a common directory               *
           ************************************************************

-------------------------------------------------------------------------------------------
                                      ORCA LEAN-SCF
                              memory conserving SCF solver
-------------------------------------------------------------------------------------------

----------------------------------------D-I-I-S--------------------------------------------
Iteration    Energy (Eh)           Delta-E    RMSDP     MaxDP     DIISErr   Damp  Time(sec)
-------------------------------------------------------------------------------------------
               ***  Starting incremental Fock matrix formation  ***
                              *** Initializing SOSCF ***
---------------------------------------S-O-S-C-F--------------------------------------
Iteration    Energy (Eh)           Delta-E    RMSDP     MaxDP     MaxGrad    Time(sec)
--------------------------------------------------------------------------------------
    1    -1053.6136204597021333     0.00e+00  1.82e-08  2.93e-07  6.62e-08     0.5
               *** Restarting incremental Fock matrix formation ***
    2    -1053.6136204597050892    -2.96e-12  8.74e-09  1.27e-07  2.20e-07     0.5
                  *** Gradient check signals convergence ***

               *****************************************************
               *                     SUCCESS                       *
               *           SCF CONVERGED AFTER   2 CYCLES          *
               *****************************************************

             **** ENERGY FILE WAS UPDATED (AR2.en.tmp) ****

----------------
TOTAL SCF ENERGY
----------------

Total Energy       :      -1053.61362045970509 Eh          -28670.28418 eV

Components:
Nuclear Repulsion  :         61.23336273234015 Eh            1666.24451 eV
Electronic Energy  :      -1114.84698319204517 Eh          -30336.52869 eV
One Electron Energy:      -1578.97727196965457 Eh          -42966.15593 eV
Two Electron Energy:        464.13028877760939 Eh           12629.62724 eV

Virial components:
Potential Energy   :      -2107.31822597434802 Eh          -57343.04419 eV
Kinetic Energy     :       1053.70460551464294 Eh           28672.76001 eV
Virial Ratio       :          1.99991365221860

---------------
SCF CONVERGENCE
---------------

  Last Energy change         ...    2.9559e-12  Tolerance :   1.0000e-08
  Last MAX-Density change    ...    1.2676e-07  Tolerance :   1.0000e-07
  Last RMS-Density change    ...    8.7360e-09  Tolerance :   5.0000e-09
  Last DIIS Error            ...    6.8584e-07  Tolerance :   5.0000e-07
  Last Orbital Gradient      ...    2.1952e-07  Tolerance :   1.0000e-05
  Last Orbital Rotation      ...    2.0121e-07  Tolerance :   1.0000e-05


----------------
ORBITAL ENERGIES
----------------

  NO   OCC          E(Eh)            E(eV) 
   0   2.0000    -118.607060     -3227.4622 
   1   2.0000    -118.607060     -3227.4622 
   2   2.0000     -12.319035      -335.2180 
   3   2.0000     -12.319028      -335.2178 
   4   2.0000      -9.567968      -260.3576 
   5   2.0000      -9.567966      -260.3576 
   6   2.0000      -9.567907      -260.3560 
   7   2.0000      -9.567907      -260.3560 
   8   2.0000      -9.567904      -260.3559 
   9   2.0000      -9.567904      -260.3559 
  10   2.0000      -1.286860       -35.0172 
  11   2.0000      -1.268679       -34.5225 
  12   2.0000      -0.632531       -17.2121 
  13   2.0000      -0.598734       -16.2924 
  14   2.0000      -0.598734       -16.2924 
  15   2.0000      -0.581971       -15.8362 
  16   2.0000      -0.581971       -15.8362 
  17   2.0000      -0.549126       -14.9425 
  18   0.0000       0.102956         2.8016 
  19   0.0000       0.123364         3.3569 
  20   0.0000       0.123364         3.3569 
  21   0.0000       0.132112         3.5949 
  22   0.0000       0.156512         4.2589 
  23   0.0000       0.156512         4.2589 
  24   0.0000       0.168254         4.5784 
  25   0.0000       0.282192         7.6788 
  26   0.0000       0.365912         9.9570 
  27   0.0000       0.365912         9.9570 
  28   0.0000       0.381066        10.3693 
*Only the first 10 virtual orbitals were printed.

                    ********************************
                    * MULLIKEN POPULATION ANALYSIS *
                    ********************************

-----------------------
MULLIKEN ATOMIC CHARGES
-----------------------
   0 Ar:    0.000000
   1 Ar:    0.000000
Sum of atomic charges:    0.0000000

--------------------------------
MULLIKEN REDUCED ORBITAL CHARGES
--------------------------------
  0 Ars       :     5.996334  s :     5.996334
      pz      :     3.999660  p :    12.002056
      px      :     4.002737
      py      :     3.999660
      dz2     :     0.000125  d :     0.001095
      dxz     :     0.000298
      dyz     :     0.000000
      dx2y2   :     0.000374
      dxy     :     0.000298
      f0      :     0.000016  f :     0.000515
      f+1     :     0.000161
      f-1     :     0.000003
      f+2     :     0.000027
      f-2     :     0.000000
      f+3     :     0.000268
      f-3     :     0.000040

  1 Ars       :     5.996334  s :     5.996334
      pz      :     3.999660  p :    12.002056
      px      :     4.002737
      py      :     3.999660
      dz2     :     0.000125  d :     0.001095
      dxz     :     0.000298
      dyz     :     0.000000
      dx2y2   :     0.000374
      dxy     :     0.000298
      f0      :     0.000016  f :     0.000515
      f+1     :     0.000161
      f-1     :     0.000003
      f+2     :     0.000027
      f-2     :     0.000000
      f+3     :     0.000268
      f-3     :     0.000040



                     *******************************
                     * LOEWDIN POPULATION ANALYSIS *
                     *******************************

----------------------
LOEWDIN ATOMIC CHARGES
----------------------
   0 Ar:    0.000000
   1 Ar:    0.000000

-------------------------------
LOEWDIN REDUCED ORBITAL CHARGES
-------------------------------
  0 Ars       :     5.966435  s :     5.966435
      pz      :     3.995326  p :    11.976118
      px      :     3.985466
      py      :     3.995326
      dz2     :     0.010900  d :     0.052059
      dxz     :     0.004229
      dyz     :     0.000000
      dx2y2   :     0.032700
      dxy     :     0.004229
      f0      :     0.000167  f :     0.005389
      f+1     :     0.001687
      f-1     :     0.000028
      f+2     :     0.000278
      f-2     :     0.000000
      f+3     :     0.002812
      f-3     :     0.000417

  1 Ars       :     5.966435  s :     5.966435
      pz      :     3.995326  p :    11.976118
      px      :     3.985466
      py      :     3.995326
      dz2     :     0.010900  d :     0.052059
      dxz     :     0.004229
      dyz     :     0.000000
      dx2y2   :     0.032700
      dxy     :     0.004229
      f0      :     0.000167  f :     0.005389
      f+1     :     0.001687
      f-1     :     0.000028
      f+2     :     0.000278
      f-2     :     0.000000
      f+3     :     0.002812
      f-3     :     0.000417



                      *****************************
                      * MAYER POPULATION ANALYSIS *
                      *****************************

  NA   - Mulliken gross atomic population
  ZA   - Total nuclear charge
  QA   - Mulliken gross atomic charge
  VA   - Mayer's total valence
  BVA  - Mayer's bonded valence
  FA   - Mayer's free valence

  ATOM       NA         ZA         QA         VA         BVA        FA
  0 Ar    18.0000    18.0000     0.0000    -0.0335    -0.0335     0.0000
  1 Ar    18.0000    18.0000     0.0000    -0.0335    -0.0335     0.0000

  Mayer bond orders larger than 0.100000
  => no bond orders to print

-------
TIMINGS
-------

Total SCF time: 0 days 0 hours 0 min 1 sec 

Total time                  ....       1.045 sec
Sum of individual times     ....       1.042 sec  ( 99.8%)

SCF preparation             ....       0.131 sec  ( 12.6%)
Fock matrix formation       ....       0.891 sec  ( 85.3%)
  Startup                   ....       0.001 sec  (  0.1% of F)
  Coulomb+Exchange Fock     ....       0.889 sec  ( 99.8% of F)
Diagonalization             ....       0.000 sec  (  0.0%)
Density matrix formation    ....       0.001 sec  (  0.1%)
Total Energy calculation    ....       0.001 sec  (  0.1%)
Population analysis         ....       0.007 sec  (  0.6%)
Orbital Transformation      ....       0.003 sec  (  0.3%)
Orbital Orthonormalization  ....       0.000 sec  (  0.0%)
DIIS solution               ....       0.004 sec  (  0.3%)
SOSCF solution              ....       0.005 sec  (  0.5%)
Finished LeanSCF after   1.0 sec

Maximum memory used throughout the entire LEANSCF-calculation: 12.3 MB


           ************************************************************
           *        Program running with 2 parallel MPI-processes     *
           *              working on a common directory               *
           ************************************************************

------------------------------------------------------------------------------
                                ORCA  MP2 
------------------------------------------------------------------------------

NOTE: Switching SHARK to Segmented Contraction for MP2
      If that is not desired please turn off the PGCFlag in the input (%shark PGCFlag 0 end)
      Number of basis functions in BAS before restore: 150
      Number of basis functions in BAS after restore : 100
Freezing NCore=20 chemical core electrons
MP2 will be done in the AO integral direct mode
The Q1-step will be done using symmetric double matrices
Dimension of the basis                    ...  100
Memory devoted for MP2                    ... 4096 MB   
Memory needed for all in one shot         ...   16 MB
Number of MOs that can be treated together... 1062      
[...]
------------------------------------------------------------------------------
Input electron density              ... AR2.pmp2ur
BaseName (.gbw .S,...)              ... AR2

                    ********************************
                    * MULLIKEN POPULATION ANALYSIS *
                    ********************************

-----------------------
MULLIKEN ATOMIC CHARGES
-----------------------
   0 Ar:   -0.000000
   1 Ar:   -0.000000
Sum of atomic charges:   -0.0000000

--------------------------------
MULLIKEN REDUCED ORBITAL CHARGES
--------------------------------
  0 Ars       :     5.991513  s :     5.991513
      pz      :     3.971111  p :    11.913346
      px      :     3.971125
      py      :     3.971111
      dz2     :     0.017286  d :     0.086436
      dxz     :     0.017285
      dyz     :     0.017278
      dx2y2   :     0.017301
      dxy     :     0.017285
      f0      :     0.001244  f :     0.008706
      f+1     :     0.001244
      f-1     :     0.001243
      f+2     :     0.001244
      f-2     :     0.001244
      f+3     :     0.001244
      f-3     :     0.001244
  1 Ars       :     5.991513  s :     5.991513
      pz      :     3.971111  p :    11.913346
      px      :     3.971125
      py      :     3.971111
      dz2     :     0.017286  d :     0.086436
      dxz     :     0.017285
      dyz     :     0.017278
      dx2y2   :     0.017301
      dxy     :     0.017285
      f0      :     0.001244  f :     0.008706
      f+1     :     0.001244
      f-1     :     0.001243
      f+2     :     0.001244
      f-2     :     0.001244
      f+3     :     0.001244
      f-3     :     0.001244


                     *******************************
                     * LOEWDIN POPULATION ANALYSIS *
                     *******************************

----------------------
LOEWDIN ATOMIC CHARGES
----------------------
   0 Ar:    0.000000
   1 Ar:    0.000000

-------------------------------
LOEWDIN REDUCED ORBITAL CHARGES
-------------------------------
  0 Ars       :     5.991399  s :     5.991399
      pz      :     3.971110  p :    11.913469
      px      :     3.971249
      py      :     3.971110
      dz2     :     0.017283  d :     0.086426
      dxz     :     0.017286
      dyz     :     0.017278
      dx2y2   :     0.017294
      dxy     :     0.017286
      f0      :     0.001244  f :     0.008706
      f+1     :     0.001244
      f-1     :     0.001243
      f+2     :     0.001244
      f-2     :     0.001244
      f+3     :     0.001244
      f-3     :     0.001244
  1 Ars       :     5.991399  s :     5.991399
      pz      :     3.971110  p :    11.913469
      px      :     3.971249
      py      :     3.971110
      dz2     :     0.017283  d :     0.086426
      dxz     :     0.017286
      dyz     :     0.017278
      dx2y2   :     0.017294
      dxy     :     0.017286
      f0      :     0.001244  f :     0.008706
      f+1     :     0.001244
      f-1     :     0.001243
      f+2     :     0.001244
      f-2     :     0.001244
      f+3     :     0.001244
      f-3     :     0.001244


                      *****************************
                      * MAYER POPULATION ANALYSIS *
                      *****************************

  NA   - Mulliken gross atomic population
  ZA   - Total nuclear charge
  QA   - Mulliken gross atomic charge
  VA   - Mayer's total valence
  BVA  - Mayer's bonded valence
  FA   - Mayer's free valence

  ATOM       NA         ZA         QA         VA         BVA        FA
  0 Ar    18.0000    18.0000    -0.0000     0.4951     0.0014     0.4938
  1 Ar    18.0000    18.0000    -0.0000     0.4951     0.0014     0.4938

  Mayer bond orders larger than 0.100000
  => No bond orders to print


                *******************************************
                * RELAXED MP2 DENSITY POPULATION ANALYSIS *
                *******************************************

------------------------------------------------------------------------------
                           ORCA POPULATION ANALYSIS
------------------------------------------------------------------------------
Input electron density              ... AR2.pmp2re
BaseName (.gbw .S,...)              ... AR2

                    ********************************
                    * MULLIKEN POPULATION ANALYSIS *
                    ********************************

-----------------------
MULLIKEN ATOMIC CHARGES
-----------------------
   0 Ar:   -0.000000
   1 Ar:   -0.000000
Sum of atomic charges:   -0.0000000

--------------------------------
MULLIKEN REDUCED ORBITAL CHARGES
--------------------------------
  0 Ars       :     5.991521  s :     5.991521
      pz      :     3.971111  p :    11.913336
      px      :     3.971115
      py      :     3.971111
      dz2     :     0.017286  d :     0.086437
      dxz     :     0.017285
      dyz     :     0.017278
      dx2y2   :     0.017302
      dxy     :     0.017285
      f0      :     0.001244  f :     0.008706
      f+1     :     0.001244
      f-1     :     0.001243
      f+2     :     0.001244
      f-2     :     0.001244
      f+3     :     0.001244
      f-3     :     0.001244
  1 Ars       :     5.991521  s :     5.991521
      pz      :     3.971111  p :    11.913336
      px      :     3.971115
      py      :     3.971111
      dz2     :     0.017286  d :     0.086437
      dxz     :     0.017285
      dyz     :     0.017278
      dx2y2   :     0.017302
      dxy     :     0.017285
      f0      :     0.001244  f :     0.008706
      f+1     :     0.001244
      f-1     :     0.001243
      f+2     :     0.001244
      f-2     :     0.001244
      f+3     :     0.001244
      f-3     :     0.001244


                     *******************************
                     * LOEWDIN POPULATION ANALYSIS *
                     *******************************

----------------------
LOEWDIN ATOMIC CHARGES
----------------------
   0 Ar:    0.000000
   1 Ar:    0.000000

-------------------------------
LOEWDIN REDUCED ORBITAL CHARGES
-------------------------------
  0 Ars       :     5.991399  s :     5.991399
      pz      :     3.971110  p :    11.913469
      px      :     3.971248
      py      :     3.971110
      dz2     :     0.017283  d :     0.086426
      dxz     :     0.017286
      dyz     :     0.017278
      dx2y2   :     0.017294
      dxy     :     0.017286
      f0      :     0.001244  f :     0.008706
      f+1     :     0.001244
      f-1     :     0.001243
      f+2     :     0.001244
      f-2     :     0.001244
      f+3     :     0.001244
      f-3     :     0.001244
  1 Ars       :     5.991399  s :     5.991399
      pz      :     3.971110  p :    11.913469
      px      :     3.971248
      py      :     3.971110
      dz2     :     0.017283  d :     0.086426
      dxz     :     0.017286
      dyz     :     0.017278
      dx2y2   :     0.017294
      dxy     :     0.017286
      f0      :     0.001244  f :     0.008706
      f+1     :     0.001244
      f-1     :     0.001243
      f+2     :     0.001244
      f-2     :     0.001244
      f+3     :     0.001244
      f-3     :     0.001244


                      *****************************
                      * MAYER POPULATION ANALYSIS *
                      *****************************

  NA   - Mulliken gross atomic population
  ZA   - Total nuclear charge
  QA   - Mulliken gross atomic charge
  VA   - Mayer's total valence
  BVA  - Mayer's bonded valence
  FA   - Mayer's free valence

  ATOM       NA         ZA         QA         VA         BVA        FA
  0 Ar    18.0000    18.0000     0.0000     0.4947     0.0013     0.4934
  1 Ar    18.0000    18.0000     0.0000     0.4947     0.0013     0.4934

  Mayer bond orders larger than 0.100000
  => No bond orders to print


----------------------------------
MP2 DERIVATIVE INTEGRAL GENERATION
----------------------------------

Input SCF Electron Density              ... AR2.scfp
Input Correlated Electron Density       ... AR2.pmp2re
Input Energy Weighted Density           ... AR2.wmp2.tmp
Input Wavefunction Amplitudes           ... AR2.mp2tsaa.tmp

Nuclear repulsion gradient              ... done (  0.0 sec)
HCore & Overlap gradient  (SHARK)       ... done (  0.0 sec)
Analytic two-electron gradient terms    ... 
  Batch handling in the gradient evaluation:
  General contraction                   ... not used
  Memory available                      ... 4085.1 MB
  Memory per occupied orbital in Q2     ...    0.6 MB
  Memory per occupied orbital in Q3     ...    0.0 MB
  Total memory requirement per |i>      ...    0.6 MB
  Number of orbitals treated per batch  ...      8
  Number of batches to be done          ...      1
done (  2.4 sec)

---------------------------------------
MP2 TOTAL ENERGY:    -1054.048723234 Eh
---------------------------------------

The final MP2 gradient
  0:  -0.00009620  -0.00000000  -0.00000000
  1:   0.00009620   0.00000000   0.00000000

-----------------------------------
NORM OF THE MP2 GRADIENT:  0.000136
-----------------------------------

Maximum memory used throughout the entire MP2-calculation: 73.5 MB

-------------------------   --------------------
FINAL SINGLE POINT ENERGY     -1054.048723234358
-------------------------   --------------------

                                *** OPTIMIZATION RUN DONE ***


Storing optimized geometry in AR2.005.xyz ... done
Storing optimized geometry and energy in AR2.xyzall ... done
Storing actual gbw-file in AR2.005.gbw ... done


           ************************************************************
           *        Program running with 2 parallel MPI-processes     *
           *              working on a common directory               *
           ************************************************************

------------------------------------------------------------------------------
                              ORCA PROPERTY CALCULATIONS
------------------------------------------------------------------------------

GBWName                                 ... AR2.gbw
Number of atoms                         ...      2
Number of basis functions               ...    150
Max core memory                         ...   1024 MB

Electric properties:
Dipole moment                           ... YES
Quadrupole moment                       ...  NO
Static polarizability (Dipole/Dipole)   ...  NO
Static polarizability (Dipole/Quad.)    ...  NO
Static polarizability (Quad./Quad.)     ...  NO
Static polarizability (Velocity)        ...  NO

Atomic electric properties:
Dipole moment                           ...  NO
Quadrupole moment                       ...  NO
Static polarizability                   ...  NO

Choice of electric origin               ... Center of mass
Position of electric origin             ...     4.204641     0.000000     0.000000

General magnetic properties:
Magnetizability                         ...  NO

EPR properties:
g-Tensor (aka g-matrix)                 ...  NO
Zero-Field splitting spin-orbit         ...  NO
Zero-field splitting spin-spin          ...  NO
Hyperfine couplings                     ...  NO (   0 nuclei)
Quadrupole couplings                    ...  NO (   0 nuclei)
Contact density                         ...  NO (   0 nuclei)

NMR properties:
Chemical shifts                         ...  NO (   0 nuclei)
Spin-rotation constants                 ...  NO (   0 nuclei)
Spin-spin couplings                     ...  NO (   0 nuclei,    0 pairs)

Choice of magnetic origin               ... GIAO
Position of magnetic origin             ...     0.000000     0.000000     0.000000

Properties with geometric perturbations:
SCF Hessian                             ...  NO
IR spectrum                             ...  NO
VCD spectrum                            ...  NO
X-ray spectroscopy properties:
SCF XES/XAS/RIXS spectra                ...  NO


-------------
DIPOLE MOMENT
-------------

Method             : SCF
Type of density    : Electron Density
Multiplicity       :   1
Irrep              :   0
Energy             : -1053.6267105416511640 Eh
Relativity type    : 
Basis              : AO
                                X                 Y                 Z
Electronic contribution:     -0.000000000      -0.000000000       0.000000000
Nuclear contribution   :     -0.000000000       0.000000000       0.000000000
                        -----------------------------------------
Total Dipole Moment    :     -0.000000000      -0.000000000       0.000000000
                        -----------------------------------------
Magnitude (a.u.)       :      0.000000000
Magnitude (Debye)      :      0.000000000



--------------------
Rotational spectrum 
--------------------
 
Rotational constants in cm-1:             0.000000             0.033759             0.033759 
Rotational constants in MHz :             0.000000          1012.074656          1012.074656 

Dipole components along the rotational axes: 
x,y,z [a.u.] :    -0.000000    -0.000000     0.000000 
x,y,z [Debye]:    -0.000000    -0.000000     0.000000 

 

-------------
DIPOLE MOMENT
-------------

Method             : MP2
Type of density    : Electron Density
Multiplicity       :   1
Level              : Unrelaxed density
Irrep              :   0
Energy             :     0.0000000000000000 Eh
Relativity type    : 
Basis              : AO
                                X                 Y                 Z
Electronic contribution:     -0.000000000      -0.000000000       0.000000000
Nuclear contribution   :     -0.000000000       0.000000000       0.000000000
                        -----------------------------------------
Total Dipole Moment    :     -0.000000000      -0.000000000       0.000000000
                        -----------------------------------------
Magnitude (a.u.)       :      0.000000000
Magnitude (Debye)      :      0.000000000



--------------------
Rotational spectrum 
--------------------
 
Rotational constants in cm-1:             0.000000             0.033759             0.033759 
Rotational constants in MHz :             0.000000          1012.074656          1012.074656 

Dipole components along the rotational axes: 
x,y,z [a.u.] :    -0.000000    -0.000000     0.000000 
x,y,z [Debye]:    -0.000000    -0.000000     0.000000 

 

-------------
DIPOLE MOMENT
-------------

Method             : MP2
Type of density    : Electron Density
Multiplicity       :   1
Level              : Relaxed density
Irrep              :   0
Energy             :     0.0000000000000000 Eh
Relativity type    : 
Basis              : AO
                                X                 Y                 Z
Electronic contribution:     -0.000000000      -0.000000000       0.000000000
Nuclear contribution   :     -0.000000000       0.000000000       0.000000000
                        -----------------------------------------
Total Dipole Moment    :     -0.000000000      -0.000000000       0.000000000
                        -----------------------------------------
Magnitude (a.u.)       :      0.000000000
Magnitude (Debye)      :      0.000000000



--------------------
Rotational spectrum 
--------------------
 
Rotational constants in cm-1:             0.000000             0.033759             0.033759 
Rotational constants in MHz :             0.000000          1012.074656          1012.074656 

Dipole components along the rotational axes: 
x,y,z [a.u.] :    -0.000000    -0.000000     0.000000 
x,y,z [Debye]:    -0.000000    -0.000000     0.000000 

 

Dipole moment calculation done in   0.0 sec 

Maximum memory used throughout the entire PROP-calculation: 6.4 MB
                   **** RELAXED SURFACE SCAN DONE ***

                    SUMMARY OF THE CALCULATED SURFACE

----------------------------
RELAXED SURFACE SCAN RESULTS
----------------------------

Column   1: NONAME

The Calculated Surface using the 'Actual Energy'
   2.80000000 -1054.04034847
   3.35000000 -1054.04854479
   3.90000000 -1054.04905281
   4.45000000 -1054.04885987
   5.00000000 -1054.04872323

The Calculated Surface using the SCF energy
   2.80000000 -1053.61362046
   3.35000000 -1053.62488429
   3.90000000 -1053.62647697
   4.45000000 -1053.62668634
   5.00000000 -1053.62671054

The Calculated Surface using the MP2 energy
   2.80000000 -1054.04034847
   3.35000000 -1054.04854479
   3.90000000 -1054.04905281
   4.45000000 -1054.04885987
   5.00000000 -1054.04872323


--------------------------------
SUGGESTED CITATIONS FOR THIS RUN
--------------------------------

Below you find a list of papers that are relevant to this ORCA run
We neither can nor want to force you to cite these papers, but we appreciate if you do
You receive ORCA, which is the product of decades of hard work by many enthusiastic individuals, for free
The only thing we kindly ask in return is that you cite our papers,
We deeply appreciate it, if you show your appreciation for ORCA by not just citing the generic ORCA reference.

Please note that relegating all ORCA citations to the supporting information does *not* help us.
SI sections are not indexed - citations you put there will not count into any citation statistics
But we need these citations in order to attract the funding resources that allow us to do what we are doing

Therefore, if you are a happy ORCA user, please consider citing a few of the papers listed below in the main body of your paper

In addition to the list printed below, the program has created the file AR2.bibtex that contains the list in bibtex format
You can import this file easily into all common literature databanks and citation aid programs


List of essential papers. We consider these as the minimum necessary citations

  1. Neese,F.
     Software update: the ORCA program system, version 5.0
     WIRES Comput. Molec. Sci., 2022 12(1)e1606
     doi.org/10.1002/wcms.1606

List of papers to cite with high priority. The work reported in these papers was absolutely
necessary for this run to complete.
Our perspective: the developers of density functionals and basis sets usually get cited in chemistry papers
Good! But without the algorithms to do something with them, the functionals or basis sets would not do anything.
Hence, in our opinion, the algorithm design and method developments papers are equally worthy of getting cited

  1. Neese,F.
     The SHARK Integral Generation and Digestion System
     J. Comp. Chem., 2022  1-16
     doi.org/10.1002/jcc.26942

List of suggested additional citations. These are papers that are important in the 'surrounding' of 
of this run, or papers that preceded the highly important papers. If you like your results we are grateful for a citation.

  1. Neese,F.
     The ORCA program system
     WIRES Comput. Molec. Sci., 2012 2(1)73-78
     doi.org/10.1002/wcms.81
  2. Neese,F.
     Software update: the ORCA program system, version 4.0
     WIRES Comput. Molec. Sci., 2018 8(1)1-6
     doi.org/10.1002/wcms.1327
  3. Neese,F.; Wennmohs,F.; Becker,U.; Riplinger,C.
     The ORCA quantum chemistry program package
     J. Chem. Phys., 2020 152 Art. No. L224108
     doi.org/10.1063/5.0004608

List of optional additional citations

  1. Neese,F.
     Approximate second-order SCF convergence for spin unrestricted wavefunctions
     Chem. Phys. Lett., 2000 325(1-3)93-98
     doi.org/10.1016/s0009-2614(00)00662-x

Timings for individual modules:

Sum of individual times          ...      127.026 sec (=   2.117 min)
Startup calculation              ...       13.091 sec (=   0.218 min)  10.3 %
SCF iterations                   ...       23.405 sec (=   0.390 min)  18.4 %
Property calculations            ...        2.515 sec (=   0.042 min)   2.0 %
MP2 module                       ...       87.957 sec (=   1.466 min)  69.2 %
Geometry relaxation              ...        0.058 sec (=   0.001 min)   0.0 %
                             ****ORCA TERMINATED NORMALLY****
TOTAL RUN TIME: 0 days 0 hours 2 minutes 11 seconds 930 msec
