
                                 *****************
                                 * O   R   C   A *
                                 *****************

                                            #,                                       
                                            ###                                      
                                            ####                                     
                                            #####                                    
                                            ######                                   
                                           ########,                                 
                                     ,,################,,,,,                         
                               ,,#################################,,                 
                          ,,##########################################,,             
                       ,#########################################, ''#####,          
                    ,#############################################,,   '####,        
                  ,##################################################,,,,####,       
                ,###########''''           ''''###############################       
              ,#####''   ,,,,##########,,,,          '''####'''          '####       
            ,##' ,,,,###########################,,,                        '##       
           ' ,,###''''                  '''############,,,                           
         ,,##''                                '''############,,,,        ,,,,,,###''
      ,#''                                            '''#######################'''  
     '                                                          ''''####''''         
             ,#######,   #######,   ,#######,      ##                                
            ,#'     '#,  ##    ##  ,#'     '#,    #''#        ,####,   ,####,        
            ##       ##  ##   ,#'  ##            #'  '#       #'       #'  '#        
            ##       ##  #######   ##           ,######,      #####,   #    #        
            '#,     ,#'  ##    ##  '#,     ,#' ,#      #,     #,   #   #,  ,#        
             '#######'   ##     ##  '#######'  #'      '#     '####' # '####'        



                #########################################################
                #                        -***-                          #
                #          Department of theory and spectroscopy        #
                #                                                       #
                #                      Frank Neese                      #
                #                                                       #
                #     Directorship, Architecture, Infrastructure        #
                #                    SHARK, DRIVERS                     #
                #        Core code/Algorithms in most modules           #
                #                                                       #
                #        Max Planck Institute fuer Kohlenforschung      #
                #                Kaiser Wilhelm Platz 1                 #
                #                 D-45470 Muelheim/Ruhr                 #
                #                      Germany                          #
                #                                                       #
                #                  All rights reserved                  #
                #                        -***-                          #
                #########################################################


                         Program Version 6.0.0  -   RELEASE  -


 With contributions from (in alphabetic order):
   Daniel Aravena         : Magnetic Suceptibility
   Michael Atanasov       : Ab Initio Ligand Field Theory (pilot matlab implementation)
   Alexander A. Auer      : GIAO ZORA, VPT2 properties, NMR spectrum
   Ute Becker             : All parallelization in ORCA, NUMFREQ, NUMCALC
   Giovanni Bistoni       : ED, misc. LED, open-shell LED, HFLD
   Martin Brehm           : Molecular dynamics
   Dmytro Bykov           : pre 5.0 version of the SCF Hessian
   Marcos Casanova-Páez   : Triplet and SCS-CIS(D). UHF-(DLPNO)-IP/EA/STEOM-CCSD. UHF-CVS-IP/STEOM-CCSD
   Vijay G. Chilkuri      : MRCI spin determinant printing, contributions to CSF-ICE
   Pauline Colinet        : FMM embedding
   Dipayan Datta          : RHF DLPNO-CCSD density
   Achintya Kumar Dutta   : EOM-CC, STEOM-CC
   Nicolas Foglia         : Exact transition moments, OPA infrastructure, MCD improvements
   Dmitry Ganyushin       : Spin-Orbit,Spin-Spin,Magnetic field MRCI
   Miquel Garcia          : C-PCM and meta-GGA Hessian, CCSD/C-PCM, Gaussian charge scheme
   Tiago L. C. Gouveia    : GS-ROHF, GS-ROCIS
   Yang Guo               : DLPNO-NEVPT2, F12-NEVPT2, CIM, IAO-localization
   Andreas Hansen         : Spin unrestricted coupled pair/coupled cluster methods
   Ingolf Harden          : AUTO-CI MPn and infrastructure 
   Benjamin Helmich-Paris : MC-RPA, TRAH-(SCF,CASSCF), AVAS, COSX integrals, SCF dyn. polar.
   Lee Huntington         : MR-EOM, pCC
   Robert Izsak           : Overlap fitted RIJCOSX, COSX-SCS-MP3, EOM
   Riya Kayal             : Wick's Theorem for AUTO-CI, AUTO-CI UHF-CCSDT
   Emily Kempfer          : AUTO-CI, RHF CISDT and CCSDT
   Christian Kollmar      : KDIIS, OOCD, Brueckner-CCSD(T), CCSD density, CASPT2, CASPT2-K, improved NEVPT2
   Axel Koslowski         : Symmetry handling
   Simone Kossmann        : Meta GGA functionals, TD-DFT gradient, OOMP2, (MP2 Hessian; deprecated post 5.0)
   Lucas Lang             : DCDCAS
   Marvin Lechner         : AUTO-CI (C++ implementation), FIC-MRCC
   Spencer Leger          : CASSCF response
   Dagmar Lenk            : GEPOL surface, SMD, ORCA-2-JSON
   Dimitrios Liakos       : Extrapolation schemes; Compound Job, initial MDCI parallelization
   Dimitrios Manganas     : Further ROCIS development; embedding schemes. LFT, Crystal Embedding
   Dimitrios Pantazis     : SARC Basis sets
   Anastasios Papadopoulos: AUTO-CI, single reference methods and gradients
   Taras Petrenko         : pre 6.0 DFT Hessian and TD-DFT gradient, (ASA, deprecated), ECA, 1-Electron XAS/XES, NRVS
   Peter Pinski           : DLPNO-MP2, DLPNO-MP2 Gradient
   Christoph Reimann      : Effective Core Potentials
   Marius Retegan         : Local ZFS, SOC
   Christoph Riplinger    : Optimizer, TS searches, QM/MM, DLPNO-CCSD(T), (RO)-DLPNO pert. Triples
   Michael Roemelt        : Original ROCIS implementation
   Masaaki Saitow         : Open-shell DLPNO-CCSD energy and density
   Barbara Sandhoefer     : DKH picture change effects
   Kantharuban Sivalingam : CASSCF convergence/infrastructure, NEVPT2 and variants, FIC-MRCI
   Bernardo de Souza      : ESD, SOC TD-DFT
   Georgi Stoychev        : AutoAux, RI-MP2 NMR, DLPNO-MP2 response, X2C
   Van Anh Tran           : RI-MP2 g-tensors
   Willem Van den Heuvel  : Paramagnetic NMR
   Zikuan Wang            : NOTCH, Electric field optimization 
   Frank Wennmohs         : Technical directorship and infrastructure
   Hang Xu                : AUTO-CI-Response properties 


 We gratefully acknowledge several colleagues who have allowed us to
 interface, adapt or use parts of their codes:
   Stefan Grimme, W. Hujo, H. Kruse, P. Pracht,  : VdW corrections, initial TS optimization,
                  C. Bannwarth, S. Ehlert,         DFT functionals, gCP, sTDA/sTD-DF
                  L. Wittmann, M. Mueller
   Ed Valeev, F. Pavosevic, A. Kumar             : LibInt (2-el integral package), F12 methods
   Garnet Chan, S. Sharma, J. Yang, R. Olivares  : DMRG
   Ulf Ekstrom                                   : XCFun DFT Library
   Mihaly Kallay                                 : mrcc  (arbitrary order and MRCC methods)
   Frank Weinhold                                : gennbo (NPA and NBO analysis)
   Simon Mueller                                 : openCOSMO-RS
   Christopher J. Cramer and Donald G. Truhlar   : smd solvation model
   Lars Goerigk                                  : TD-DFT with DH, B97 family of functionals
   V. Asgeirsson, H. Jonsson                     : NEB implementation
   FAccTs GmbH                                   : IRC, NEB, NEB-TS, DLPNO-Multilevel, CI-OPT
                                                   MM, QMMM, 2- and 3-layer-ONIOM, Crystal-QMMM,
                                                   LR-CPCM, SF, NACMEs, symmetry and pop. for TD-DFT,
                                                   nearIR, NL-DFT gradient (VV10), updates on ESD,
                                                   ML-optimized integration grids, MBIS, APM,
                                                   GOAT, DOCKER, SOLVATOR, interface openCOSMO-RS
   S Lehtola, MJT Oliveira, MAL Marques          : LibXC Library
   Liviu Ungur et al                             : ANISO software


 Your calculation uses the libint2 library for the computation of 2-el integrals
 For citations please refer to: http://libint.valeyev.net

 Your ORCA version has been built with support for libXC version: 6.2.2
 For citations please refer to: https://libxc.gitlab.io

 This ORCA versions uses:
   CBLAS   interface :  Fast vector & matrix operations
   LAPACKE interface :  Fast linear algebra routines
   SCALAPACK package :  Parallel linear algebra routines
   Shared memory     :  Shared parallel matrices
   BLAS/LAPACK       :  OpenBLAS 0.3.27  USE64BITINT DYNAMIC_ARCH NO_AFFINITY Haswell SINGLE_THREADED
        Core in use  :  Haswell
   Copyright (c) 2011-2014, The OpenBLAS Project


================================================================================

----- Orbital basis set information -----
Your calculation utilizes the basis: cc-pVTZ 
       H, B-Ne : Obtained from the ccRepo (grant-hill.group.shef.ac.uk/ccrepo) Feb. 2017
                 T. H. Dunning, Jr., J. Chem. Phys. 90, 1007 (1989)
            He : Obtained from the ccRepo (grant-hill.group.shef.ac.uk/ccrepo) Feb. 2017
                 D. E. Woon, T. H. Dunning, Jr., J. Chem. Phys. 100, 2975 (1994)
  Li-Be, Na-Mg : Obtained from the ccRepo (grant-hill.group.shef.ac.uk/ccrepo) Feb. 2017
                 B. P. Prascher, D. E. Woon, K. A. Peterson, T. H. Dunning, Jr., A. K. Wilson, Theor. Chem. Acc. 128, 69 (2011)
         Al-Ar : Obtained from the ccRepo (grant-hill.group.shef.ac.uk/ccrepo) Feb. 2017
                 D. E. Woon, T. H. Dunning, Jr., J. Chem. Phys. 98, 1358 (1993)
            Ca : Obtained from the Peterson Research Group Website (tyr0.chem.wsu.edu/~kipeters) Feb. 2017
                 J. Koput, K. A. Peterson, J. Phys. Chem. 106, 9595 (2002)
         Sc-Zn : Obtained from the ccRepo (grant-hill.group.shef.ac.uk/ccrepo) Feb. 2017
                 N. B. Balabanov, K. A. Peterson, J. Chem. Phys. 123, 064107 (2005)
                 N. B. Balabanov, K. A. Peterson, J. Chem. Phys. 125, 074110 (2006)
         Ga-Kr : Obtained from the ccRepo (grant-hill.group.shef.ac.uk/ccrepo) Feb. 2017
                 A. K. Wilson, D. E. Woon, K. A. Peterson, T. H. Dunning, Jr., J. Chem. Phys. 110, 7667 (1999)
             Y : Obtained from the ccRepo (grant-hill.group.shef.ac.uk/ccrepo) Feb. 2017
                 K. A. Peterson, D. Figgen, M. Dolg, H. Stoll, J. Chem. Phys. 126, 124101 (2007)
        Ag, Au : Obtained from the Peterson Research Group Website (tyr0.chem.wsu.edu/~kipeters) Feb. 2017
                 K. A. Peterson, C. Puzzarini, Theor. Chem. Acc. 114, 283 (2005)

================================================================================
                                        WARNINGS
                       Please study these warnings very carefully!
================================================================================


WARNING: The frozen-core approximation for MP2-gradient calculations is turned on by default.

WARNING: Geometry Optimization
  ===> : Switching off AutoStart
         For restart on a previous wavefunction, please use MOREAD

================================================================================
                                       INPUT FILE
================================================================================
NAME = AR2forLDevaluation.inp
|  1> # MP2 scan of the potential energy curve for Ar...Ar
|  2>     ! HF MP2 cc-pVTZ TightSCF Opt PAL2
|  3> 
|  4>     * xyz 0 1
|  5>     Ar      0.000000     0.000000     0.000000
|  6>     Ar      2.800000     0.000000     0.000000
|  7>     *
|  8> 
|  9>     %geom
| 10>         Constraints
| 11>         end
| 12>         Scan
| 13>             B 0 1 = 2.8, 5, 12   
| 14>         end
| 15>     end
| 16> 
| 17>     %mp2
| 18>         Density relaxed
| 19>     end
| 20> 
| 21>     %scf
| 22>         ConvForced true  # Ensure SCF convergence
| 23>     endd                         ****END OF INPUT****
================================================================================

                       ******************************
                       *    Relaxed Surface Scan    *
                       ******************************

                      Bond (  1,   0):   range=   2.80000000 ..   5.00000000  steps =   12

There is 1 parameter to be scanned.
There will be   12 constrained geometry optimizations.


         *************************************************************
         *               RELAXED SURFACE SCAN STEP   1               *
         *                                                           *
         *                 Bond (  1,   0)  :   2.80000000           *
         *************************************************************

Geometry optimization settings:
Update method            Update   .... BFGS
Choice of coordinates    CoordSys .... (2022) Redundant Internals
Initial Hessian          InHess   .... Almloef's Model
Max. no of cycles        MaxIter  .... 50

Convergence Tolerances:
Energy Change            TolE     ....  5.0000e-06 Eh
Max. Gradient            TolMAXG  ....  3.0000e-04 Eh/bohr
RMS Gradient             TolRMSG  ....  1.0000e-04 Eh/bohr
Max. Displacement        TolMAXD  ....  4.0000e-03 bohr
RMS Displacement         TolRMSD  ....  2.0000e-03 bohr
Strict Convergence                .... False

------------------------------------------------------------------------------
                        ORCA OPTIMIZATION COORDINATE SETUP
------------------------------------------------------------------------------

The optimization will be done in redundant internal coordinates (2022)
Making redundant internal coordinates   ...  (2022 redundants) done
Evaluating the initial hessian          ...  (Almloef) done
Evaluating the coordinates              ...  done
Calculating the B-matrix                .... done
Calculating the G-matrix                .... done
Diagonalizing the G-matrix              .... done
Will constrain atom 0 coordinate 1 
Will constrain atom 0 coordinate 2 
Will constrain atom 0 coordinate 3 
Will constrain atom 1 coordinate 1 
Will constrain atom 1 coordinate 2 
Will constrain atom 1 coordinate 3 
The first mode is                       ....    0
The number of degrees of freedom        ....    1
Storing new coordinates                 .... done

    -----------------------------------------------------------------
                    Redundant Internal Coordinates


    -----------------------------------------------------------------
         Definition                    Initial Value    Approx d2E/dq
    -----------------------------------------------------------------
      1. B(Ar  1,Ar  0)                  2.8000         0.017708 C 
    -----------------------------------------------------------------

Number of atoms                         .... 2
Number of degrees of freedom            .... 1


         *************************************************************
         *                GEOMETRY OPTIMIZATION CYCLE   1            *
         *************************************************************
---------------------------------
CARTESIAN COORDINATES (ANGSTROEM)
---------------------------------
  Ar     0.000000    0.000000    0.000000
  Ar     2.800000    0.000000    0.000000

----------------------------
CARTESIAN COORDINATES (A.U.)
----------------------------
  NO LB      ZA    FRAG     MASS         X           Y           Z
   0 Ar   18.0000    0    39.948    0.000000    0.000000    0.000000
   1 Ar   18.0000    0    39.948    5.291233    0.000000    0.000000

--------------------------------
INTERNAL COORDINATES (ANGSTROEM)
--------------------------------
 Ar     0   0   0     0.000000000000     0.00000000     0.00000000
 Ar     1   0   0     2.800000000000     0.00000000     0.00000000

---------------------------
INTERNAL COORDINATES (A.U.)
---------------------------
 Ar     0   0   0     0.000000000000     0.00000000     0.00000000
 Ar     1   0   0     5.291233174980     0.00000000     0.00000000

---------------------
BASIS SET INFORMATION
---------------------
There are 1 groups of distinct atoms

 Group   1 Type Ar  : 41s16p2d1f contracted to 5s4p2d1f pattern {13131311/7711/11/1}

Atom   0Ar   basis set group =>   1
Atom   1Ar   basis set group =>   1


           ************************************************************
           *        Program running with 2 parallel MPI-processes     *
           *              working on a common directory               *
           ************************************************************
------------------------------------------------------------------------------
                             ORCA STARTUP CALCULATIONS
------------------------------------------------------------------------------
------------------------------------------------------------------------------
                   ___                                                        
                  /   \      - P O W E R E D   B Y -                         
                 /     \                                                     
                 |  |  |   _    _      __       _____    __    __             
                 |  |  |  | |  | |    /  \     |  _  \  |  |  /  |          
                  \  \/   | |  | |   /    \    | | | |  |  | /  /          
                 / \  \   | |__| |  /  /\  \   | |_| |  |  |/  /          
                |  |  |   |  __  | /  /__\  \  |    /   |      \           
                |  |  |   | |  | | |   __   |  |    \   |  |\   \          
                \     /   | |  | | |  |  |  |  | |\  \  |  | \   \       
                 \___/    |_|  |_| |__|  |__|  |_| \__\ |__|  \__/        
                                                                              
                      - O R C A' S   B I G   F R I E N D -                    
                                      &                                       
                       - I N T E G R A L  F E E D E R -                       
                                                                              
 v1 FN, 2020, v2 2021, v3 2022-2024                                           
------------------------------------------------------------------------------


----------------------
SHARK INTEGRAL PACKAGE
----------------------

Number of atoms                             ...      2
Number of basis functions                   ...    118
Number of shells                            ...     54
Maximum angular momentum                    ...      3
Integral batch strategy                     ... SHARK/LIBINT Hybrid
RI-J (if used) integral strategy            ... SPLIT-RIJ (Revised 2003 algorithm where possible)
Printlevel                                  ...      1
Contraction scheme used                     ... PARTIAL GENERAL contraction
Prescreening option                         ... SCHWARTZ
   Thresh                                   ... 2.500e-11
   Tcut                                     ... 2.500e-12
   Tpresel                                  ... 2.500e-12 
Coulomb Range Separation                    ... NOT USED
Exchange Range Separation                   ... NOT USED
Multipole approximations                    ... NOT USED
Finite Nucleus Model                        ... NOT USED
CABS basis                                  ... NOT available
Auxiliary Coulomb fitting basis             ... NOT available
Auxiliary J/K fitting basis                 ... NOT available
Auxiliary Correlation fitting basis         ... NOT available
Auxiliary 'external' fitting basis          ... NOT available

Checking pre-screening integrals            ... done (  0.0 sec) Dimension = 54
Save PGC pre-screening integrals            ... done (  0.0 sec) Dimension = 54
Calculate PGC overlap integrals             ... done (  0.0 sec) Dimension = 24
Calculating pre-screening integrals (ORCA)  ... done (  0.1 sec) Dimension = 24
Check shell pair data                       ... done (  0.0 sec)
Shell pair information
Shell pair cut-off parameter TPreSel        ...   2.5e-12
Total number of shell pairs                 ...      1485
Shell pairs after pre-screening             ...      1069
Total number of primitive shell pairs       ...      1485
Primitive shell pairs kept                  ...      1069
          la=0 lb=0:    299 shell pairs
          la=1 lb=0:    364 shell pairs
          la=1 lb=1:    127 shell pairs
          la=2 lb=0:    100 shell pairs
          la=2 lb=1:     64 shell pairs
          la=2 lb=2:     10 shell pairs
          la=3 lb=0:     58 shell pairs
          la=3 lb=1:     36 shell pairs
          la=3 lb=2:      8 shell pairs
          la=3 lb=3:      3 shell pairs

Calculating one electron integrals          ... done (  0.0 sec)
Calculating Nuclear repulsion               ... done (  0.0 sec) ENN=     61.233362732340 Eh

Diagonalization of the overlap matrix:
Smallest eigenvalue                        ... 1.521e-02
Time for diagonalization                   ...    0.001 sec
Threshold for overlap eigenvalues          ... 1.000e-07
Number of eigenvalues below threshold      ... 0
Time for construction of square roots      ...    0.000 sec
Total time needed                          ...    0.001 sec

-------------------
DFT GRID GENERATION
-------------------

General Integration Accuracy     IntAcc      ... 4.388
Radial Grid Type                 RadialGrid  ... OptM3 with GC (2021)
Angular Grid (max. ang.)         AngularGrid ... 4 (Lebedev-302)
Angular grid pruning method      GridPruning ... 4 (adaptive)
Weight generation scheme         WeightScheme... mBecke (2022)
Basis function cutoff            BFCut       ... 1.0000e-11
Integration weight cutoff        WCut        ... 1.0000e-14
Partially contracted basis set               ... off
Rotationally invariant grid construction     ... off
Angular grids for H and He will be reduced by one unit

Total number of grid points                  ...    14720
Total number of batches                      ...      232
Average number of points per batch           ...       63
Average number of grid points per atom       ...     7360

---------------------
SHARK GRID GENERATION
---------------------

General Integration Accuracy     IntAcc      ... 4.388
Radial Grid Type                 RadialGrid  ... OptM3 with GC (2021)
Angular Grid (max. ang.)         AngularGrid ... 4 (Lebedev-302)
Angular grid pruning method      GridPruning ... 4 (adaptive)
Weight generation scheme         WeightScheme... mBecke (2022)
Basis function cutoff            BFCut       ... 1.0000e-11
Integration weight cutoff        WCut        ... 1.0000e-14
Partially contracted basis set               ... off
Rotationally invariant grid construction     ... off
Angular grids for H and He will be reduced by one unit
Core-polarized basis detected: some atoms will have their core
                               angular grid increased.
Steep s-basis detected: some atoms will have their radial
                        grid points doubled.

Total number of grid points                  ...    38678
Total number of batches                      ...      606
Average number of points per batch           ...       63
Average number of grid points per atom       ...    19339
Initializing property integral containers    ... done (  0.0 sec)

SHARK setup successfully completed in   0.9 seconds

Maximum memory used throughout the entire STARTUP-calculation: 48.0 MB


           ************************************************************
           *        Program running with 2 parallel MPI-processes     *
           *              working on a common directory               *
           ************************************************************
-------------------------------------------------------------------------------
                                 ORCA GUESS
                   Start orbitals & Density for SCF / CASSCF
-------------------------------------------------------------------------------

------------
SCF SETTINGS
------------
Hamiltonian:
 Ab initio Hamiltonian  Method          .... Hartree-Fock(GTOs)


General Settings:
 Integral files         IntName         .... AR2forLDevaluation
 Hartree-Fock type      HFTyp           .... RHF
 Total Charge           Charge          ....    0
 Multiplicity           Mult            ....    1
 Number of Electrons    NEL             ....   36
 Basis Dimension        Dim             ....   68
 Nuclear Repulsion      ENuc            ....     61.2333627323 Eh

Convergence Acceleration:
 AO-DIIS                CNVDIIS         .... on
   Start iteration      DIISMaxIt       ....    12
   Startup error        DIISStart       ....  0.200000
   # of expansion vecs  DIISMaxEq       ....     5
   Bias factor          DIISBfac        ....   1.050
   Max. coefficient     DIISMaxC        ....  10.000
 MO-DIIS                CNVKDIIS        .... off
 Trust-Rad. Augm. Hess. CNVTRAH         .... auto
   Auto Start mean grad. ratio tolernc. ....  1.125000
   Auto Start start iteration           ....    50
   Auto Start num. interpolation iter.  ....    10
   Max. Number of Micro iterations      ....    24
   Max. Number of Macro iterations      .... Maxiter - #DIIS iter
   Number of Davidson start vectors     ....     2
   Converg. threshold    (grad. norm)   ....   1.000e-05
   Grad. Scal. Fac. for Micro threshold ....   0.100
   Minimum threshold for Micro iter.    ....   1.000e-02
   NR start threshold (gradient norm)   ....   1.000e-04
   Initial trust radius                 ....   0.400
   Minimum AH scaling param. (alpha)    ....   1.000
   Maximum AH scaling param. (alpha)    .... 1000.000
   Quad. conv. algorithm                .... NR
   White noise on init. David. guess    .... on
   Maximum white noise                  ....   0.010
   Pseudo random numbers                .... off
   Inactive MOs                         .... canonical
   Orbital update algorithm             .... Taylor
   Preconditioner                       .... Diag
   Full preconditioner red. dimension   ....   250
 SOSCF                  CNVSOSCF        .... on
   Start iteration      SOSCFMaxIt      ....   150
   Startup grad/error   SOSCFStart      ....  0.003300
   Hessian update       SOSCFHessUp     .... L-BFGS
 Level Shifting         CNVShift        .... on
   Level shift para.    LevelShift      ....    0.2500
   Turn off err/grad.   ShiftErr        ....    0.0010
 Zerner damping         CNVZerner       .... off
 Static damping         CNVDamp         .... on
   Fraction old density DampFac         ....    0.7000
   Max. Damping (<1)    DampMax         ....    0.9800
   Min. Damping (>=0)   DampMin         ....    0.0000
   Turn off err/grad.   DampErr         ....    0.1000

SCF Procedure:
 Maximum # iterations   MaxIter         ....   125
 SCF integral mode      SCFMode         .... Direct
   Integral package                     .... SHARK and LIBINT hybrid scheme
 Reset frequency        DirectResetFreq ....    20
 Integral Threshold     Thresh          ....  2.500e-11 Eh
 Primitive CutOff       TCut            ....  2.500e-12 Eh

Convergence Tolerance:
 Convergence Check Mode ConvCheckMode   .... Total+1el-Energy
 Convergence forced     ConvForced      .... 1
 Energy Change          TolE            ....  1.000e-08 Eh
 1-El. energy change                    ....  1.000e-05 Eh
 Orbital Gradient       TolG            ....  1.000e-05
 Orbital Rotation angle TolX            ....  1.000e-05
 DIIS Error             TolErr          ....  5.000e-07

------------------------------
INITIAL GUESS: MODEL POTENTIAL
------------------------------
Loading Hartree-Fock densities                     ... done
Calculating cut-offs                               ... done
Initializing the effective Hamiltonian             ... done
Setting up the integral package (SHARK)            ... done
Starting the Coulomb interaction                   ... done (   0.0 sec)
Making the grid                                    ... done (   0.0 sec)
Mapping shells                                     ... done
Starting the XC term evaluation                    ... done (   0.0 sec)
Transforming the Hamiltonian                       ... done (   0.0 sec)
Diagonalizing the Hamiltonian                      ... done (   0.0 sec)
Back transforming the eigenvectors                 ... done (   0.0 sec)
Now organizing SCF variables                       ... done
                      ------------------
                      INITIAL GUESS DONE (   0.0 sec)
                      ------------------
             **** ENERGY FILE WAS UPDATED (AR2forLDevaluation.en.tmp) ****
Finished Guess after   0.2 sec
Maximum memory used throughout the entire GUESS-calculation: 6.8 MB


           ************************************************************
           *        Program running with 2 parallel MPI-processes     *
           *              working on a common directory               *
           ************************************************************

-------------------------------------------------------------------------------------------
                                      ORCA LEAN-SCF
                              memory conserving SCF solver
-------------------------------------------------------------------------------------------

----------------------------------------D-I-I-S--------------------------------------------
Iteration    Energy (Eh)           Delta-E    RMSDP     MaxDP     DIISErr   Damp  Time(sec)
-------------------------------------------------------------------------------------------
               ***  Starting incremental Fock matrix formation  ***
    1    -1053.5851895720259108     0.00e+00  1.94e-03  4.13e-02  1.47e-01  0.700   0.1
    2    -1053.5932245750643688    -8.04e-03  1.47e-03  2.98e-02  1.06e-01  0.700   0.1
                               ***Turning on AO-DIIS***
    3    -1053.5990135160038790    -5.79e-03  1.15e-03  2.17e-02  7.53e-02  0.700   0.1
    4    -1053.6031517679020908    -4.14e-03  2.77e-03  5.10e-02  5.29e-02  0.000   0.1
                              *** Initializing SOSCF ***
---------------------------------------S-O-S-C-F--------------------------------------
Iteration    Energy (Eh)           Delta-E    RMSDP     MaxDP     MaxGrad    Time(sec)
--------------------------------------------------------------------------------------
    5    -1053.6131648208747720    -1.00e-02  7.81e-05  1.38e-03  7.37e-04     0.1
               *** Restarting incremental Fock matrix formation ***
    6    -1053.6131682763918889    -3.46e-06  2.32e-05  4.26e-04  3.05e-04     0.2
    7    -1053.6131686015512514    -3.25e-07  6.41e-06  1.15e-04  6.96e-05     0.1
    8    -1053.6131686217368042    -2.02e-08  5.68e-07  7.34e-06  7.84e-06     0.1
    9    -1053.6131686222347525    -4.98e-10  2.00e-07  3.02e-06  1.70e-06     0.1
                 **** Energy Check signals convergence ****

               *****************************************************
               *                     SUCCESS                       *
               *           SCF CONVERGED AFTER   9 CYCLES          *
               *****************************************************

             **** ENERGY FILE WAS UPDATED (AR2forLDevaluation.en.tmp) ****

----------------
TOTAL SCF ENERGY
----------------

Total Energy       :      -1053.61316862223475 Eh          -28670.27189 eV

Components:
Nuclear Repulsion  :         61.23336273234015 Eh            1666.24451 eV
Electronic Energy  :      -1114.84653135457484 Eh          -30336.51640 eV
One Electron Energy:      -1579.03074387913898 Eh          -42967.61097 eV
Two Electron Energy:        464.18421252456415 Eh           12631.09458 eV

Virial components:
Potential Energy   :      -2107.35218080873346 Eh          -57343.96815 eV
Kinetic Energy     :       1053.73901218649848 Eh           28673.69626 eV
Virial Ratio       :          1.99988057425719

---------------
SCF CONVERGENCE
---------------

  Last Energy change         ...    4.9795e-10  Tolerance :   1.0000e-08
  Last MAX-Density change    ...    3.0200e-06  Tolerance :   1.0000e-07
  Last RMS-Density change    ...    2.0038e-07  Tolerance :   5.0000e-09
  Last DIIS Error            ...    7.3675e-04  Tolerance :   5.0000e-07
  Last Orbital Gradient      ...    1.7015e-06  Tolerance :   1.0000e-05
  Last Orbital Rotation      ...    1.7737e-06  Tolerance :   1.0000e-05


----------------
ORBITAL ENERGIES
----------------

  NO   OCC          E(Eh)            E(eV) 
   0   2.0000    -118.604694     -3227.3978 
   1   2.0000    -118.604694     -3227.3978 
   2   2.0000     -12.317253      -335.1695 
   3   2.0000     -12.317246      -335.1693 
   4   2.0000      -9.566153      -260.3083 
   5   2.0000      -9.566153      -260.3083 
   6   2.0000      -9.566096      -260.3067 
   7   2.0000      -9.566096      -260.3067 
   8   2.0000      -9.566093      -260.3066 
   9   2.0000      -9.566093      -260.3066 
  10   2.0000      -1.285759       -34.9873 
  11   2.0000      -1.267589       -34.4929 
  12   2.0000      -0.631506       -17.1841 
  13   2.0000      -0.597728       -16.2650 
  14   2.0000      -0.597728       -16.2650 
  15   2.0000      -0.581050       -15.8112 
  16   2.0000      -0.581050       -15.8112 
  17   2.0000      -0.548178       -14.9167 
  18   0.0000       0.507114        13.7993 
  19   0.0000       0.507114        13.7993 
  20   0.0000       0.539548        14.6818 
  21   0.0000       0.582374        15.8472 
  22   0.0000       0.585542        15.9334 
  23   0.0000       0.585542        15.9334 
  24   0.0000       0.636355        17.3161 
  25   0.0000       0.699598        19.0370 
  26   0.0000       0.699598        19.0370 
  27   0.0000       0.702206        19.1080 
  28   0.0000       0.724296        19.7091 
*Only the first 10 virtual orbitals were printed.

                    ********************************
                    * MULLIKEN POPULATION ANALYSIS *
                    ********************************

-----------------------
MULLIKEN ATOMIC CHARGES
-----------------------
   0 Ar:    0.000000
   1 Ar:   -0.000000
Sum of atomic charges:   -0.0000000

--------------------------------
MULLIKEN REDUCED ORBITAL CHARGES
--------------------------------
  0 Ars       :     5.999464  s :     5.999464
      pz      :     3.999805  p :    11.998422
      px      :     3.998812
      py      :     3.999805
      dz2     :     0.000419  d :     0.002053
      dxz     :     0.000189
      dyz     :     0.000000
      dx2y2   :     0.001257
      dxy     :     0.000189
      f0      :     0.000002  f :     0.000061
      f+1     :     0.000018
      f-1     :     0.000000
      f+2     :     0.000004
      f-2     :     0.000000
      f+3     :     0.000030
      f-3     :     0.000006

  1 Ars       :     5.999464  s :     5.999464
      pz      :     3.999805  p :    11.998422
      px      :     3.998812
      py      :     3.999805
      dz2     :     0.000419  d :     0.002053
      dxz     :     0.000189
      dyz     :     0.000000
      dx2y2   :     0.001257
      dxy     :     0.000189
      f0      :     0.000002  f :     0.000061
      f+1     :     0.000018
      f-1     :     0.000000
      f+2     :     0.000004
      f-2     :     0.000000
      f+3     :     0.000030
      f-3     :     0.000006



                     *******************************
                     * LOEWDIN POPULATION ANALYSIS *
                     *******************************

----------------------
LOEWDIN ATOMIC CHARGES
----------------------
   0 Ar:   -0.000000
   1 Ar:   -0.000000

-------------------------------
LOEWDIN REDUCED ORBITAL CHARGES
-------------------------------
  0 Ars       :     5.995124  s :     5.995124
      pz      :     3.999658  p :    11.999772
      px      :     4.000456
      py      :     3.999658
      dz2     :     0.001077  d :     0.004963
      dxz     :     0.000329
      dyz     :     0.000000
      dx2y2   :     0.003230
      dxy     :     0.000329
      f0      :     0.000005  f :     0.000141
      f+1     :     0.000043
      f-1     :     0.000001
      f+2     :     0.000008
      f-2     :     0.000000
      f+3     :     0.000071
      f-3     :     0.000012

  1 Ars       :     5.995124  s :     5.995124
      pz      :     3.999658  p :    11.999772
      px      :     4.000456
      py      :     3.999658
      dz2     :     0.001077  d :     0.004963
      dxz     :     0.000329
      dyz     :     0.000000
      dx2y2   :     0.003230
      dxy     :     0.000329
      f0      :     0.000005  f :     0.000141
      f+1     :     0.000043
      f-1     :     0.000001
      f+2     :     0.000008
      f-2     :     0.000000
      f+3     :     0.000071
      f-3     :     0.000012



                      *****************************
                      * MAYER POPULATION ANALYSIS *
                      *****************************

  NA   - Mulliken gross atomic population
  ZA   - Total nuclear charge
  QA   - Mulliken gross atomic charge
  VA   - Mayer's total valence
  BVA  - Mayer's bonded valence
  FA   - Mayer's free valence

  ATOM       NA         ZA         QA         VA         BVA        FA
  0 Ar    18.0000    18.0000     0.0000    -0.0146    -0.0146     0.0000
  1 Ar    18.0000    18.0000    -0.0000    -0.0146    -0.0146    -0.0000

  Mayer bond orders larger than 0.100000
  => no bond orders to print

-------
TIMINGS
-------

Total SCF time: 0 days 0 hours 0 min 1 sec 

Total time                  ....       1.236 sec
Sum of individual times     ....       1.229 sec  ( 99.4%)

SCF preparation             ....       0.141 sec  ( 11.4%)
Fock matrix formation       ....       1.055 sec  ( 85.3%)
  Startup                   ....       0.002 sec  (  0.2% of F)
  Coulomb+Exchange Fock     ....       1.049 sec  ( 99.4% of F)
Diagonalization             ....       0.000 sec  (  0.0%)
Density matrix formation    ....       0.003 sec  (  0.3%)
Total Energy calculation    ....       0.003 sec  (  0.2%)
Population analysis         ....       0.003 sec  (  0.2%)
Orbital Transformation      ....       0.004 sec  (  0.3%)
Orbital Orthonormalization  ....       0.000 sec  (  0.0%)
DIIS solution               ....       0.014 sec  (  1.2%)
SOSCF solution              ....       0.006 sec  (  0.5%)
Finished LeanSCF after   1.2 sec

Maximum memory used throughout the entire LEANSCF-calculation: 11.0 MB


           ************************************************************
           *        Program running with 2 parallel MPI-processes     *
           *              working on a common directory               *
           ************************************************************

------------------------------------------------------------------------------
                                ORCA  MP2 
------------------------------------------------------------------------------

NOTE: Switching SHARK to Segmented Contraction for MP2
      If that is not desired please turn off the PGCFlag in the input (%shark PGCFlag 0 end)
      Number of basis functions in BAS before restore: 118
      Number of basis functions in BAS after restore : 68
Freezing NCore=20 chemical core electrons
MP2 will be done in the AO integral direct mode
The Q1-step will be done using symmetric double matrices
Dimension of the basis                    ...   68
Memory devoted for MP2                    ... 4096 MB   
Memory needed for all in one shot         ...    6 MB
Number of MOs that can be treated together... 3364      
MP2 density construction                  ... relaxed
The MP2 gradient is requested => amplitudes will be stored on disk
Total number of MOs              ...    8
Number of MOs treated per batch  ...    4 
Number of batches necessary      ...    1 
OPERATORS   0/  0 PASS   1
OPERATORS   0/  0 PASS   0
-----------------------------------------------
 MP2 CORRELATION ENERGY   :     -0.415403259 Eh
-----------------------------------------------


---------------------
MP2 DENSITY FORMATION
---------------------

Completing the external part of the density      ... done
Storing the unrelaxed density                    ... done

Calculating G(D)                                 ... done
Completing the Lagrangian                        ... done
Solving the Z-vector equations                   ... 
-------------------
SHARK CP-SCF DRIVER
-------------------

Dimension of the orbital basis          ...     68
Dimension of the CPSCF-problem          ...    900
Number of operators                     ...      1
Max. number of iterations               ...    128
Convergence Tolerance                   ... 1.0e-04
Number of perturbations                 ...      1
Perturbation type                       ... REAL

----------------------------
POPLE LINEAR EQUATION SOLVER
----------------------------

  ITERATION   0:   ||err||_max =   9.4361e-03 (   0.4 sec)
  ITERATION   1:   ||err||_max =   6.0055e-04 (   0.4 sec)
  ITERATION   2:   ||err||_max =   1.4170e-04 (   0.4 sec)
  ITERATION   3:   ||err||_max =   3.3410e-05 (   0.4 sec)
                                                 ... done
Finalizing the relaxed density                   ... done
Transforming P to the AO basis                   ... done
Storing the relaxed density                      ... done

------------------------------------
ENERGY WEIGHTED DENSITY FINALIZATION
------------------------------------

Gathering the parts of the W-matrix              ...                                                      done
Forming the Z-density                            ... done
Transforming Z to the AO basis                   ... done
Calculating G(Z)                                 ... done
Finalizing the W-matrix                          ...                                                      done
Transforming W to the AO basis and storing       ... done

                *********************************************
                * UNRELAXED MP2 DENSITY POPULATION ANALYSIS *
                *********************************************

------------------------------------------------------------------------------
                           ORCA POPULATION ANALYSIS
------------------------------------------------------------------------------
Input electron density              ... AR2forLDevaluation.pmp2ur
BaseName (.gbw .S,...)              ... AR2forLDevaluation

                    ********************************
                    * MULLIKEN POPULATION ANALYSIS *
                    ********************************

-----------------------
MULLIKEN ATOMIC CHARGES
-----------------------
   0 Ar:    0.000000
   1 Ar:   -0.000000
Sum of atomic charges:   -0.0000000

--------------------------------
MULLIKEN REDUCED ORBITAL CHARGES
--------------------------------
  0 Ars       :     5.991411  s :     5.991411
      pz      :     3.972066  p :    11.914630
      px      :     3.970497
      py      :     3.972066
      dz2     :     0.017315  d :     0.086819
      dxz     :     0.017209
      dyz     :     0.016858
      dx2y2   :     0.018228
      dxy     :     0.017209
      f0      :     0.001011  f :     0.007141
      f+1     :     0.001032
      f-1     :     0.001004
      f+2     :     0.001016
      f-2     :     0.001009
      f+3     :     0.001047
      f-3     :     0.001022
  1 Ars       :     5.991411  s :     5.991411
      pz      :     3.972066  p :    11.914630
      px      :     3.970497
      py      :     3.972066
      dz2     :     0.017315  d :     0.086819
      dxz     :     0.017209
      dyz     :     0.016858
      dx2y2   :     0.018228
      dxy     :     0.017209
      f0      :     0.001011  f :     0.007141
      f+1     :     0.001032
      f-1     :     0.001004
      f+2     :     0.001016
      f-2     :     0.001009
      f+3     :     0.001047
      f-3     :     0.001022


                     *******************************
                     * LOEWDIN POPULATION ANALYSIS *
                     *******************************

----------------------
LOEWDIN ATOMIC CHARGES
----------------------
   0 Ar:   -0.000000
   1 Ar:   -0.000000

-------------------------------
LOEWDIN REDUCED ORBITAL CHARGES
-------------------------------
  0 Ars       :     5.986998  s :     5.986998
      pz      :     3.971915  p :    11.916018
      px      :     3.972189
      py      :     3.971915
      dz2     :     0.017978  d :     0.089759
      dxz     :     0.017353
      dyz     :     0.016858
      dx2y2   :     0.020217
      dxy     :     0.017353
      f0      :     0.001013  f :     0.007225
      f+1     :     0.001058
      f-1     :     0.001004
      f+2     :     0.001021
      f-2     :     0.001009
      f+3     :     0.001091
      f-3     :     0.001029
  1 Ars       :     5.986998  s :     5.986998
      pz      :     3.971915  p :    11.916018
      px      :     3.972189
      py      :     3.971915
      dz2     :     0.017978  d :     0.089759
      dxz     :     0.017353
      dyz     :     0.016858
      dx2y2   :     0.020217
      dxy     :     0.017353
      f0      :     0.001013  f :     0.007225
      f+1     :     0.001058
      f-1     :     0.001004
      f+2     :     0.001021
      f-2     :     0.001009
      f+3     :     0.001091
      f-3     :     0.001029


                      *****************************
                      * MAYER POPULATION ANALYSIS *
                      *****************************

  NA   - Mulliken gross atomic population
  ZA   - Total nuclear charge
  QA   - Mulliken gross atomic charge
  VA   - Mayer's total valence
  BVA  - Mayer's bonded valence
  FA   - Mayer's free valence

  ATOM       NA         ZA         QA         VA         BVA        FA
  0 Ar    18.0000    18.0000     0.0000     0.4645    -0.0141     0.4785
  1 Ar    18.0000    18.0000     0.0000     0.4645    -0.0141     0.4785

  Mayer bond orders larger than 0.100000
  => No bond orders to print


                *******************************************
                * RELAXED MP2 DENSITY POPULATION ANALYSIS *
                *******************************************

------------------------------------------------------------------------------
                           ORCA POPULATION ANALYSIS
------------------------------------------------------------------------------
Input electron density              ... AR2forLDevaluation.pmp2re
BaseName (.gbw .S,...)              ... AR2forLDevaluation

                    ********************************
                    * MULLIKEN POPULATION ANALYSIS *
                    ********************************

-----------------------
MULLIKEN ATOMIC CHARGES
-----------------------
   0 Ar:    0.000000
   1 Ar:   -0.000000
Sum of atomic charges:   -0.0000000

--------------------------------
MULLIKEN REDUCED ORBITAL CHARGES
--------------------------------
  0 Ars       :     5.991694  s :     5.991694
      pz      :     3.972038  p :    11.914117
      px      :     3.970041
      py      :     3.972038
      dz2     :     0.017358  d :     0.087045
      dxz     :     0.017236
      dyz     :     0.016858
      dx2y2   :     0.018357
      dxy     :     0.017236
      f0      :     0.001011  f :     0.007144
      f+1     :     0.001033
      f-1     :     0.001004
      f+2     :     0.001016
      f-2     :     0.001009
      f+3     :     0.001049
      f-3     :     0.001023
  1 Ars       :     5.991694  s :     5.991694
      pz      :     3.972038  p :    11.914117
      px      :     3.970041
      py      :     3.972038
      dz2     :     0.017358  d :     0.087045
      dxz     :     0.017236
      dyz     :     0.016858
      dx2y2   :     0.018357
      dxy     :     0.017236
      f0      :     0.001011  f :     0.007144
      f+1     :     0.001033
      f-1     :     0.001004
      f+2     :     0.001016
      f-2     :     0.001009
      f+3     :     0.001049
      f-3     :     0.001023


                     *******************************
                     * LOEWDIN POPULATION ANALYSIS *
                     *******************************

----------------------
LOEWDIN ATOMIC CHARGES
----------------------
   0 Ar:   -0.000000
   1 Ar:   -0.000000

-------------------------------
LOEWDIN REDUCED ORBITAL CHARGES
-------------------------------
  0 Ars       :     5.987224  s :     5.987224
      pz      :     3.971889  p :    11.915593
      px      :     3.971814
      py      :     3.971889
      dz2     :     0.018015  d :     0.089956
      dxz     :     0.017378
      dyz     :     0.016858
      dx2y2   :     0.020327
      dxy     :     0.017378
      f0      :     0.001014  f :     0.007228
      f+1     :     0.001058
      f-1     :     0.001004
      f+2     :     0.001021
      f-2     :     0.001009
      f+3     :     0.001091
      f-3     :     0.001030
  1 Ars       :     5.987224  s :     5.987224
      pz      :     3.971889  p :    11.915593
      px      :     3.971814
      py      :     3.971889
      dz2     :     0.018015  d :     0.089956
      dxz     :     0.017378
      dyz     :     0.016858
      dx2y2   :     0.020327
      dxy     :     0.017378
      f0      :     0.001014  f :     0.007228
      f+1     :     0.001058
      f-1     :     0.001004
      f+2     :     0.001021
      f-2     :     0.001009
      f+3     :     0.001091
      f-3     :     0.001030


                      *****************************
                      * MAYER POPULATION ANALYSIS *
                      *****************************

  NA   - Mulliken gross atomic population
  ZA   - Total nuclear charge
  QA   - Mulliken gross atomic charge
  VA   - Mayer's total valence
  BVA  - Mayer's bonded valence
  FA   - Mayer's free valence

  ATOM       NA         ZA         QA         VA         BVA        FA
  0 Ar    18.0000    18.0000     0.0000     0.4684    -0.0098     0.4783
  1 Ar    18.0000    18.0000    -0.0000     0.4684    -0.0098     0.4783

  Mayer bond orders larger than 0.100000
  => No bond orders to print


----------------------------------
MP2 DERIVATIVE INTEGRAL GENERATION
----------------------------------

Input SCF Electron Density              ... AR2forLDevaluation.scfp
Input Correlated Electron Density       ... AR2forLDevaluation.pmp2re
Input Energy Weighted Density           ... AR2forLDevaluation.wmp2.tmp
Input Wavefunction Amplitudes           ... AR2forLDevaluation.mp2tsaa.tmp

Nuclear repulsion gradient              ... done (  0.0 sec)
HCore & Overlap gradient  (SHARK)       ... done (  0.0 sec)
Analytic two-electron gradient terms    ... 
  Batch handling in the gradient evaluation:
  General contraction                   ... not used
  Memory available                      ... 4090.2 MB
  Memory per occupied orbital in Q2     ...    0.3 MB
  Memory per occupied orbital in Q3     ...    0.0 MB
  Total memory requirement per |i>      ...    0.3 MB
  Number of orbitals treated per batch  ...      8
  Number of batches to be done          ...      1
done (  1.9 sec)

---------------------------------------
MP2 TOTAL ENERGY:    -1054.028571881 Eh
---------------------------------------

The final MP2 gradient
  0:   0.02036321   0.00000000  -0.00000000
  1:  -0.02036321  -0.00000000   0.00000000

-----------------------------------
NORM OF THE MP2 GRADIENT:  0.028798
-----------------------------------

Maximum memory used throughout the entire MP2-calculation: 65.9 MB

-------------------------   --------------------
FINAL SINGLE POINT ENERGY     -1054.028571880929
-------------------------   --------------------

------------------------------------------------------------------------------
                         ORCA GEOMETRY RELAXATION STEP
------------------------------------------------------------------------------

Reading the OPT-File                    .... done
Getting information on internals        .... done
Copying old internal coords+grads       .... done
Making the new internal coordinates     .... (2022 redundants) done
Validating the new internal coordinates .... (2022 redundants) done
Calculating the B-matrix                .... done
Calculating the G,G- and P matrices     .... done
Transforming gradient to internals      .... done
Projecting the internal gradient        .... done
Number of atoms                         ....   2
Number of internal coordinates          ....   1
Current Energy                          .... -1054.028571881 Eh
Current gradient norm                   ....     0.028797933 Eh/bohr
Maximum allowed component of the step   ....  0.300
Current trust radius                    ....  0.300
Evaluating the initial hessian          ....  (Almloef) done
Projecting the Hessian                  .... done
Forming the augmented Hessian           .... done
Diagonalizing the augmented Hessian     .... done
Last element of RFO vector              ....  1.000000000
Lowest eigenvalues of augmented Hessian:
  0.000000000
Length of the computed step             ....  0.000000000
The final length of the internal step   ....  0.000000000
Converting the step to Cartesian space:
 Initial RMS(Int)=    0.0000000000
Transforming coordinates:
 Iter   0:  RMS(Cart)=    0.0000000000 RMS(Int)=    0.0000000000
Imposing constraints:
 Iter   0:  RMS(Cart)=    0.0000000000 RMS(Int)=    0.0000000000
CONVERGED
done
Storing new coordinates                 .... done

                                .--------------------.
          ----------------------|Geometry convergence|-------------------------
          Item                value                   Tolerance       Converged
          ---------------------------------------------------------------------
          RMS gradient        0.0000000000            0.0001000000      YES
          MAX gradient        0.0000000000            0.0003000000      YES
          RMS step            0.0000000000            0.0020000000      YES
          MAX step            0.0000000000            0.0040000000      YES
          ........................................................
          Max(Bonds)      0.0000      Max(Angles)    0.00
          Max(Dihed)        0.00      Max(Improp)    0.00
          ---------------------------------------------------------------------

                    ***********************HURRAY********************
                    ***        THE OPTIMIZATION HAS CONVERGED     ***
                    *************************************************


    ---------------------------------------------------------------------------
                         Redundant Internal Coordinates

                          --- Optimized Parameters ---  
                            (Angstroem and degrees)

        Definition                    OldVal   dE/dq     Step     FinalVal
    ----------------------------------------------------------------------------
     1. B(Ar  1,Ar  0)                2.8000 -0.020363  0.0000    2.8000 C 
    ----------------------------------------------------------------------------

Geometry step timings:
Preparation and reading OPT file:      0.000 s (10.268 %)
Internal coordinates            :      0.000 s ( 5.982 %)
B/P matrices and projection     :      0.000 s (17.857 %)
Hessian update/contruction      :      0.000 s (19.464 %)
Making the step                 :      0.000 s ( 9.911 %)
Converting the step to Cartesian:      0.000 s ( 7.054 %)
Storing new data                :      0.000 s ( 3.839 %)
Checking convergence            :      0.000 s ( 0.089 %)
Final printing                  :      0.000 s (24.196 %)
Total time                      :      0.001 s
                 *******************************************************
                 *** FINAL ENERGY EVALUATION AT THE STATIONARY POINT ***
                 ***               (AFTER    1 CYCLES)               ***
                 *******************************************************
---------------------------------
CARTESIAN COORDINATES (ANGSTROEM)
---------------------------------
  Ar     0.000000    0.000000    0.000000
  Ar     2.800000    0.000000    0.000000

----------------------------
CARTESIAN COORDINATES (A.U.)
----------------------------
  NO LB      ZA    FRAG     MASS         X           Y           Z
   0 Ar   18.0000    0    39.948    0.000000    0.000000    0.000000
   1 Ar   18.0000    0    39.948    5.291233    0.000000    0.000000

--------------------------------
INTERNAL COORDINATES (ANGSTROEM)
--------------------------------
 Ar     0   0   0     0.000000000000     0.00000000     0.00000000
 Ar     1   0   0     2.799999997365     0.00000000     0.00000000

---------------------------
INTERNAL COORDINATES (A.U.)
---------------------------
 Ar     0   0   0     0.000000000000     0.00000000     0.00000000
 Ar     1   0   0     5.291233170000     0.00000000     0.00000000

---------------------
BASIS SET INFORMATION
---------------------
There are 1 groups of distinct atoms

 Group   1 Type Ar  : 41s16p2d1f contracted to 5s4p2d1f pattern {13131311/7711/11/1}

Atom   0Ar   basis set group =>   1
Atom   1Ar   basis set group =>   1


           ************************************************************
           *        Program running with 2 parallel MPI-processes     *
           *              working on a common directory               *
           ************************************************************
------------------------------------------------------------------------------
                             ORCA STARTUP CALCULATIONS
------------------------------------------------------------------------------
------------------------------------------------------------------------------
                   ___                                                        
                  /   \      - P O W E R E D   B Y -                         
                 /     \                                                     
                 |  |  |   _    _      __       _____    __    __             
                 |  |  |  | |  | |    /  \     |  _  \  |  |  /  |          
                  \  \/   | |  | |   /    \    | | | |  |  | /  /          
                 / \  \   | |__| |  /  /\  \   | |_| |  |  |/  /          
                |  |  |   |  __  | /  /__\  \  |    /   |      \           
                |  |  |   | |  | | |   __   |  |    \   |  |\   \          
                \     /   | |  | | |  |  |  |  | |\  \  |  | \   \       
                 \___/    |_|  |_| |__|  |__|  |_| \__\ |__|  \__/        
                                                                              
                      - O R C A' S   B I G   F R I E N D -                    
                                      &                                       
                       - I N T E G R A L  F E E D E R -                       
                                                                              
 v1 FN, 2020, v2 2021, v3 2022-2024                                           
------------------------------------------------------------------------------


----------------------
SHARK INTEGRAL PACKAGE
----------------------

Number of atoms                             ...      2
Number of basis functions                   ...    118
Number of shells                            ...     54
Maximum angular momentum                    ...      3
Integral batch strategy                     ... SHARK/LIBINT Hybrid
RI-J (if used) integral strategy            ... SPLIT-RIJ (Revised 2003 algorithm where possible)
Printlevel                                  ...      1
Contraction scheme used                     ... PARTIAL GENERAL contraction
Prescreening option                         ... SCHWARTZ
   Thresh                                   ... 2.500e-11
   Tcut                                     ... 2.500e-12
   Tpresel                                  ... 2.500e-12 
Coulomb Range Separation                    ... NOT USED
Exchange Range Separation                   ... NOT USED
Multipole approximations                    ... NOT USED
Finite Nucleus Model                        ... NOT USED
CABS basis                                  ... NOT available
Auxiliary Coulomb fitting basis             ... NOT available
Auxiliary J/K fitting basis                 ... NOT available
Auxiliary Correlation fitting basis         ... NOT available
Auxiliary 'external' fitting basis          ... NOT available

Checking pre-screening integrals            ... done (  0.0 sec) Dimension = 54
Save PGC pre-screening integrals            ... done (  0.0 sec) Dimension = 54
Calculate PGC overlap integrals             ... done (  0.0 sec) Dimension = 24
Calculating pre-screening integrals (ORCA)  ... done (  0.1 sec) Dimension = 24
Check shell pair data                       ... done (  0.0 sec)
Shell pair information
Shell pair cut-off parameter TPreSel        ...   2.5e-12
Total number of shell pairs                 ...      1485
Shell pairs after pre-screening             ...      1069
Total number of primitive shell pairs       ...      1485
Primitive shell pairs kept                  ...      1069
          la=0 lb=0:    299 shell pairs
          la=1 lb=0:    364 shell pairs
          la=1 lb=1:    127 shell pairs
          la=2 lb=0:    100 shell pairs
          la=2 lb=1:     64 shell pairs
          la=2 lb=2:     10 shell pairs
          la=3 lb=0:     58 shell pairs
          la=3 lb=1:     36 shell pairs
          la=3 lb=2:      8 shell pairs
          la=3 lb=3:      3 shell pairs

Calculating one electron integrals          ... done (  0.0 sec)
Calculating Nuclear repulsion               ... done (  0.0 sec) ENN=     61.233362732340 Eh

Diagonalization of the overlap matrix:
Smallest eigenvalue                        ... 1.521e-02
Time for diagonalization                   ...    0.001 sec
Threshold for overlap eigenvalues          ... 1.000e-07
Number of eigenvalues below threshold      ... 0
Time for construction of square roots      ...    0.000 sec
Total time needed                          ...    0.001 sec

-------------------
DFT GRID GENERATION
-------------------

General Integration Accuracy     IntAcc      ... 4.388
Radial Grid Type                 RadialGrid  ... OptM3 with GC (2021)
Angular Grid (max. ang.)         AngularGrid ... 4 (Lebedev-302)
Angular grid pruning method      GridPruning ... 4 (adaptive)
Weight generation scheme         WeightScheme... mBecke (2022)
Basis function cutoff            BFCut       ... 1.0000e-11
Integration weight cutoff        WCut        ... 1.0000e-14
Partially contracted basis set               ... off
Rotationally invariant grid construction     ... off
Angular grids for H and He will be reduced by one unit

Total number of grid points                  ...    14720
Total number of batches                      ...      232
Average number of points per batch           ...       63
Average number of grid points per atom       ...     7360

---------------------
SHARK GRID GENERATION
---------------------

General Integration Accuracy     IntAcc      ... 4.388
Radial Grid Type                 RadialGrid  ... OptM3 with GC (2021)
Angular Grid (max. ang.)         AngularGrid ... 4 (Lebedev-302)
Angular grid pruning method      GridPruning ... 4 (adaptive)
Weight generation scheme         WeightScheme... mBecke (2022)
Basis function cutoff            BFCut       ... 1.0000e-11
Integration weight cutoff        WCut        ... 1.0000e-14
Partially contracted basis set               ... off
Rotationally invariant grid construction     ... off
Angular grids for H and He will be reduced by one unit
Core-polarized basis detected: some atoms will have their core
                               angular grid increased.
Steep s-basis detected: some atoms will have their radial
                        grid points doubled.

Total number of grid points                  ...    38678
Total number of batches                      ...      606
Average number of points per batch           ...       63
Average number of grid points per atom       ...    19339
Initializing property integral containers    ... done (  0.0 sec)

SHARK setup successfully completed in   1.0 seconds

Maximum memory used throughout the entire STARTUP-calculation: 48.0 MB


           ************************************************************
           *        Program running with 2 parallel MPI-processes     *
           *              working on a common directory               *
           ************************************************************
-------------------------------------------------------------------------------
                                 ORCA GUESS
                   Start orbitals & Density for SCF / CASSCF
-------------------------------------------------------------------------------

------------
SCF SETTINGS
------------
Hamiltonian:
 Ab initio Hamiltonian  Method          .... Hartree-Fock(GTOs)


General Settings:
 Integral files         IntName         .... AR2forLDevaluation
 Hartree-Fock type      HFTyp           .... RHF
 Total Charge           Charge          ....    0
 Multiplicity           Mult            ....    1
 Number of Electrons    NEL             ....   36
 Basis Dimension        Dim             ....   68
 Nuclear Repulsion      ENuc            ....     61.2333627323 Eh

Convergence Acceleration:
 AO-DIIS                CNVDIIS         .... on
   Start iteration      DIISMaxIt       ....    12
   Startup error        DIISStart       ....  0.200000
   # of expansion vecs  DIISMaxEq       ....     5
   Bias factor          DIISBfac        ....   1.050
   Max. coefficient     DIISMaxC        ....  10.000
 MO-DIIS                CNVKDIIS        .... off
 Trust-Rad. Augm. Hess. CNVTRAH         .... auto
   Auto Start mean grad. ratio tolernc. ....  1.125000
   Auto Start start iteration           ....     1
   Auto Start num. interpolation iter.  ....    10
   Max. Number of Micro iterations      ....    24
   Max. Number of Macro iterations      .... Maxiter - #DIIS iter
   Number of Davidson start vectors     ....     2
   Converg. threshold    (grad. norm)   ....   1.000e-05
   Grad. Scal. Fac. for Micro threshold ....   0.100
   Minimum threshold for Micro iter.    ....   1.000e-02
   NR start threshold (gradient norm)   ....   1.000e-04
   Initial trust radius                 ....   0.400
   Minimum AH scaling param. (alpha)    ....   1.000
   Maximum AH scaling param. (alpha)    .... 1000.000
   Quad. conv. algorithm                .... NR
   White noise on init. David. guess    .... on
   Maximum white noise                  ....   0.010
   Pseudo random numbers                .... off
   Inactive MOs                         .... canonical
   Orbital update algorithm             .... Taylor
   Preconditioner                       .... Diag
   Full preconditioner red. dimension   ....   250
 SOSCF                  CNVSOSCF        .... on
   Start iteration      SOSCFMaxIt      ....   150
   Startup grad/error   SOSCFStart      ....  0.003300
   Hessian update       SOSCFHessUp     .... L-BFGS
 Level Shifting         CNVShift        .... on
   Level shift para.    LevelShift      ....    0.2500
   Turn off err/grad.   ShiftErr        ....    0.0010
 Zerner damping         CNVZerner       .... off
 Static damping         CNVDamp         .... on
   Fraction old density DampFac         ....    0.7000
   Max. Damping (<1)    DampMax         ....    0.9800
   Min. Damping (>=0)   DampMin         ....    0.0000
   Turn off err/grad.   DampErr         ....    0.1000

SCF Procedure:
 Maximum # iterations   MaxIter         ....   125
 SCF integral mode      SCFMode         .... Direct
   Integral package                     .... SHARK and LIBINT hybrid scheme
 Reset frequency        DirectResetFreq ....    20
 Integral Threshold     Thresh          ....  2.500e-11 Eh
 Primitive CutOff       TCut            ....  2.500e-12 Eh

Convergence Tolerance:
 Convergence Check Mode ConvCheckMode   .... Total+1el-Energy
 Convergence forced     ConvForced      .... 1
 Energy Change          TolE            ....  1.000e-08 Eh
 1-El. energy change                    ....  1.000e-05 Eh
 Orbital Gradient       TolG            ....  1.000e-05
 Orbital Rotation angle TolX            ....  1.000e-05
 DIIS Error             TolErr          ....  5.000e-07

---------------------
INITIAL GUESS: MOREAD
---------------------
Guess MOs are being read from file: AR2forLDevaluation.gbw
Input Geometry matches current geometry (good)
Input basis set matches current basis set (good)
Occupation numbers will be reassigned to an Aufbau configuration
MOs were renormalized
MOs were reorthogonalized (Cholesky)
                      ------------------
                      INITIAL GUESS DONE (   0.0 sec)
                      ------------------
             **** ENERGY FILE WAS UPDATED (AR2forLDevaluation.en.tmp) ****
Finished Guess after   0.1 sec
Maximum memory used throughout the entire GUESS-calculation: 6.8 MB


           ************************************************************
           *        Program running with 2 parallel MPI-processes     *
           *              working on a common directory               *
           ************************************************************

-------------------------------------------------------------------------------------------
                                      ORCA LEAN-SCF
                              memory conserving SCF solver
-------------------------------------------------------------------------------------------

----------------------------------------D-I-I-S--------------------------------------------
Iteration    Energy (Eh)           Delta-E    RMSDP     MaxDP     DIISErr   Damp  Time(sec)
-------------------------------------------------------------------------------------------
               ***  Starting incremental Fock matrix formation  ***
                              *** Initializing SOSCF ***
---------------------------------------S-O-S-C-F--------------------------------------
Iteration    Energy (Eh)           Delta-E    RMSDP     MaxDP     MaxGrad    Time(sec)
--------------------------------------------------------------------------------------
    1    -1053.6131686216931485     0.00e+00  1.75e-08  2.58e-07  3.60e-08     0.1
               *** Restarting incremental Fock matrix formation ***
    2    -1053.6131686216936032    -4.55e-13  7.87e-09  9.82e-08  1.07e-07     0.1
                  *** Gradient check signals convergence ***

               *****************************************************
               *                     SUCCESS                       *
               *           SCF CONVERGED AFTER   2 CYCLES          *
               *****************************************************

             **** ENERGY FILE WAS UPDATED (AR2forLDevaluation.en.tmp) ****

----------------
TOTAL SCF ENERGY
----------------

Total Energy       :      -1053.61316862169360 Eh          -28670.27189 eV

Components:
Nuclear Repulsion  :         61.23336273234015 Eh            1666.24451 eV
Electronic Energy  :      -1114.84653135403369 Eh          -30336.51640 eV
One Electron Energy:      -1579.03068796838215 Eh          -42967.60945 eV
Two Electron Energy:        464.18415661434847 Eh           12631.09305 eV

Virial components:
Potential Energy   :      -2107.35217841560188 Eh          -57343.96809 eV
Kinetic Energy     :       1053.73900979390851 Eh           28673.69620 eV
Virial Ratio       :          1.99988057652697

---------------
SCF CONVERGENCE
---------------

  Last Energy change         ...    4.5475e-13  Tolerance :   1.0000e-08
  Last MAX-Density change    ...    9.8178e-08  Tolerance :   1.0000e-07
  Last RMS-Density change    ...    7.8653e-09  Tolerance :   5.0000e-09
  Last DIIS Error            ...    3.0185e-07  Tolerance :   5.0000e-07
  Last Orbital Gradient      ...    1.0739e-07  Tolerance :   1.0000e-05
  Last Orbital Rotation      ...    8.3521e-08  Tolerance :   1.0000e-05


----------------
ORBITAL ENERGIES
----------------

  NO   OCC          E(Eh)            E(eV) 
   0   2.0000    -118.604697     -3227.3979 
   1   2.0000    -118.604697     -3227.3979 
   2   2.0000     -12.317255      -335.1695 
   3   2.0000     -12.317248      -335.1694 
   4   2.0000      -9.566155      -260.3083 
   5   2.0000      -9.566155      -260.3083 
   6   2.0000      -9.566098      -260.3067 
   7   2.0000      -9.566098      -260.3067 
   8   2.0000      -9.566095      -260.3067 
   9   2.0000      -9.566095      -260.3067 
  10   2.0000      -1.285760       -34.9873 
  11   2.0000      -1.267590       -34.4929 
  12   2.0000      -0.631506       -17.1842 
  13   2.0000      -0.597729       -16.2650 
  14   2.0000      -0.597729       -16.2650 
  15   2.0000      -0.581051       -15.8112 
  16   2.0000      -0.581051       -15.8112 
  17   2.0000      -0.548179       -14.9167 
  18   0.0000       0.507114        13.7993 
  19   0.0000       0.507114        13.7993 
  20   0.0000       0.539547        14.6818 
  21   0.0000       0.582373        15.8472 
  22   0.0000       0.585541        15.9334 
  23   0.0000       0.585541        15.9334 
  24   0.0000       0.636355        17.3161 
  25   0.0000       0.699598        19.0370 
  26   0.0000       0.699598        19.0370 
  27   0.0000       0.702205        19.1080 
  28   0.0000       0.724296        19.7091 
*Only the first 10 virtual orbitals were printed.

                    ********************************
                    * MULLIKEN POPULATION ANALYSIS *
                    ********************************

-----------------------
MULLIKEN ATOMIC CHARGES
-----------------------
   0 Ar:   -0.000000
   1 Ar:   -0.000000
Sum of atomic charges:   -0.0000000

--------------------------------
MULLIKEN REDUCED ORBITAL CHARGES
--------------------------------
  0 Ars       :     5.999464  s :     5.999464
      pz      :     3.999805  p :    11.998422
      px      :     3.998812
      py      :     3.999805
      dz2     :     0.000419  d :     0.002053
      dxz     :     0.000189
      dyz     :     0.000000
      dx2y2   :     0.001257
      dxy     :     0.000189
      f0      :     0.000002  f :     0.000061
      f+1     :     0.000018
      f-1     :     0.000000
      f+2     :     0.000004
      f-2     :     0.000000
      f+3     :     0.000030
      f-3     :     0.000006

  1 Ars       :     5.999464  s :     5.999464
      pz      :     3.999805  p :    11.998422
      px      :     3.998812
      py      :     3.999805
      dz2     :     0.000419  d :     0.002053
      dxz     :     0.000189
      dyz     :     0.000000
      dx2y2   :     0.001257
      dxy     :     0.000189
      f0      :     0.000002  f :     0.000061
      f+1     :     0.000018
      f-1     :     0.000000
      f+2     :     0.000004
      f-2     :     0.000000
      f+3     :     0.000030
      f-3     :     0.000006



                     *******************************
                     * LOEWDIN POPULATION ANALYSIS *
                     *******************************

----------------------
LOEWDIN ATOMIC CHARGES
----------------------
   0 Ar:    0.000000
   1 Ar:   -0.000000

-------------------------------
LOEWDIN REDUCED ORBITAL CHARGES
-------------------------------
  0 Ars       :     5.995124  s :     5.995124
      pz      :     3.999658  p :    11.999772
      px      :     4.000456
      py      :     3.999658
      dz2     :     0.001077  d :     0.004963
      dxz     :     0.000329
      dyz     :     0.000000
      dx2y2   :     0.003230
      dxy     :     0.000329
      f0      :     0.000005  f :     0.000141
      f+1     :     0.000043
      f-1     :     0.000001
      f+2     :     0.000008
      f-2     :     0.000000
      f+3     :     0.000071
      f-3     :     0.000012

  1 Ars       :     5.995124  s :     5.995124
      pz      :     3.999658  p :    11.999772
      px      :     4.000456
      py      :     3.999658
      dz2     :     0.001077  d :     0.004963
      dxz     :     0.000329
      dyz     :     0.000000
      dx2y2   :     0.003230
      dxy     :     0.000329
      f0      :     0.000005  f :     0.000141
      f+1     :     0.000043
      f-1     :     0.000001
      f+2     :     0.000008
      f-2     :     0.000000
      f+3     :     0.000071
      f-3     :     0.000012



                      *****************************
                      * MAYER POPULATION ANALYSIS *
                      *****************************

  NA   - Mulliken gross atomic population
  ZA   - Total nuclear charge
  QA   - Mulliken gross atomic charge
  VA   - Mayer's total valence
  BVA  - Mayer's bonded valence
  FA   - Mayer's free valence

  ATOM       NA         ZA         QA         VA         BVA        FA
  0 Ar    18.0000    18.0000     0.0000    -0.0146    -0.0146    -0.0000
  1 Ar    18.0000    18.0000    -0.0000    -0.0146    -0.0146    -0.0000

  Mayer bond orders larger than 0.100000
  => no bond orders to print

-------
TIMINGS
-------

Total SCF time: 0 days 0 hours 0 min 0 sec 

Total time                  ....       0.451 sec
Sum of individual times     ....       0.447 sec  ( 99.2%)

SCF preparation             ....       0.151 sec  ( 33.4%)
Fock matrix formation       ....       0.283 sec  ( 62.7%)
  Startup                   ....       0.001 sec  (  0.3% of F)
  Coulomb+Exchange Fock     ....       0.280 sec  ( 99.2% of F)
Diagonalization             ....       0.000 sec  (  0.0%)
Density matrix formation    ....       0.001 sec  (  0.2%)
Total Energy calculation    ....       0.001 sec  (  0.1%)
Population analysis         ....       0.005 sec  (  1.2%)
Orbital Transformation      ....       0.002 sec  (  0.4%)
Orbital Orthonormalization  ....       0.000 sec  (  0.0%)
DIIS solution               ....       0.002 sec  (  0.5%)
SOSCF solution              ....       0.003 sec  (  0.6%)
Finished LeanSCF after   0.5 sec

Maximum memory used throughout the entire LEANSCF-calculation: 11.2 MB


           ************************************************************
           *        Program running with 2 parallel MPI-processes     *
           *              working on a common directory               *
           ************************************************************

------------------------------------------------------------------------------
                                ORCA  MP2 
------------------------------------------------------------------------------

NOTE: Switching SHARK to Segmented Contraction for MP2
      If that is not desired please turn off the PGCFlag in the input (%shark PGCFlag 0 end)
      Number of basis functions in BAS before restore: 118
      Number of basis functions in BAS after restore : 68
Freezing NCore=20 chemical core electrons
[...]
      dxz     :     0.016743
      dyz     :     0.016740
      dx2y2   :     0.016744
      dxy     :     0.016743
      f0      :     0.001001  f :     0.007009
      f+1     :     0.001001
      f-1     :     0.001001
      f+2     :     0.001001
      f-2     :     0.001001
      f+3     :     0.001001
      f-3     :     0.001001
  1 Ars       :     5.991860  s :     5.991860
      pz      :     3.972475  p :    11.917418
      px      :     3.972469
      py      :     3.972475
      dz2     :     0.016742  d :     0.083713
      dxz     :     0.016743
      dyz     :     0.016740
      dx2y2   :     0.016744
      dxy     :     0.016743
      f0      :     0.001001  f :     0.007009
      f+1     :     0.001001
      f-1     :     0.001001
      f+2     :     0.001001
      f-2     :     0.001001
      f+3     :     0.001001
      f-3     :     0.001001


                     *******************************
                     * LOEWDIN POPULATION ANALYSIS *
                     *******************************

----------------------
LOEWDIN ATOMIC CHARGES
----------------------
   0 Ar:    0.000000
   1 Ar:   -0.000000

-------------------------------
LOEWDIN REDUCED ORBITAL CHARGES
-------------------------------
  0 Ars       :     5.991859  s :     5.991859
      pz      :     3.972475  p :    11.917419
      px      :     3.972470
      py      :     3.972475
      dz2     :     0.016742  d :     0.083713
      dxz     :     0.016743
      dyz     :     0.016740
      dx2y2   :     0.016744
      dxy     :     0.016743
      f0      :     0.001001  f :     0.007009
      f+1     :     0.001001
      f-1     :     0.001001
      f+2     :     0.001001
      f-2     :     0.001001
      f+3     :     0.001001
      f-3     :     0.001001
  1 Ars       :     5.991859  s :     5.991859
      pz      :     3.972475  p :    11.917419
      px      :     3.972470
      py      :     3.972475
      dz2     :     0.016742  d :     0.083713
      dxz     :     0.016743
      dyz     :     0.016740
      dx2y2   :     0.016744
      dxy     :     0.016743
      f0      :     0.001001  f :     0.007009
      f+1     :     0.001001
      f-1     :     0.001001
      f+2     :     0.001001
      f-2     :     0.001001
      f+3     :     0.001001
      f-3     :     0.001001


                      *****************************
                      * MAYER POPULATION ANALYSIS *
                      *****************************

  NA   - Mulliken gross atomic population
  ZA   - Total nuclear charge
  QA   - Mulliken gross atomic charge
  VA   - Mayer's total valence
  BVA  - Mayer's bonded valence
  FA   - Mayer's free valence

  ATOM       NA         ZA         QA         VA         BVA        FA
  0 Ar    18.0000    18.0000     0.0000     0.4742     0.0001     0.4741
  1 Ar    18.0000    18.0000    -0.0000     0.4742     0.0001     0.4741

  Mayer bond orders larger than 0.100000
  => No bond orders to print


                *******************************************
                * RELAXED MP2 DENSITY POPULATION ANALYSIS *
                *******************************************

------------------------------------------------------------------------------
                           ORCA POPULATION ANALYSIS
------------------------------------------------------------------------------
Input electron density              ... AR2forLDevaluation.pmp2re
BaseName (.gbw .S,...)              ... AR2forLDevaluation

                    ********************************
                    * MULLIKEN POPULATION ANALYSIS *
                    ********************************

-----------------------
MULLIKEN ATOMIC CHARGES
-----------------------
   0 Ar:    0.000000
   1 Ar:   -0.000000
Sum of atomic charges:   -0.0000000

--------------------------------
MULLIKEN REDUCED ORBITAL CHARGES
--------------------------------
  0 Ars       :     5.991860  s :     5.991860
      pz      :     3.972475  p :    11.917418
      px      :     3.972469
      py      :     3.972475
      dz2     :     0.016742  d :     0.083713
      dxz     :     0.016743
      dyz     :     0.016740
      dx2y2   :     0.016744
      dxy     :     0.016743
      f0      :     0.001001  f :     0.007009
      f+1     :     0.001001
      f-1     :     0.001001
      f+2     :     0.001001
      f-2     :     0.001001
      f+3     :     0.001001
      f-3     :     0.001001
  1 Ars       :     5.991860  s :     5.991860
      pz      :     3.972475  p :    11.917418
      px      :     3.972469
      py      :     3.972475
      dz2     :     0.016742  d :     0.083713
      dxz     :     0.016743
      dyz     :     0.016740
      dx2y2   :     0.016744
      dxy     :     0.016743
      f0      :     0.001001  f :     0.007009
      f+1     :     0.001001
      f-1     :     0.001001
      f+2     :     0.001001
      f-2     :     0.001001
      f+3     :     0.001001
      f-3     :     0.001001


                     *******************************
                     * LOEWDIN POPULATION ANALYSIS *
                     *******************************

----------------------
LOEWDIN ATOMIC CHARGES
----------------------
   0 Ar:    0.000000
   1 Ar:   -0.000000

-------------------------------
LOEWDIN REDUCED ORBITAL CHARGES
-------------------------------
  0 Ars       :     5.991859  s :     5.991859
      pz      :     3.972475  p :    11.917419
      px      :     3.972469
      py      :     3.972475
      dz2     :     0.016742  d :     0.083713
      dxz     :     0.016743
      dyz     :     0.016740
      dx2y2   :     0.016744
      dxy     :     0.016743
      f0      :     0.001001  f :     0.007009
      f+1     :     0.001001
      f-1     :     0.001001
      f+2     :     0.001001
      f-2     :     0.001001
      f+3     :     0.001001
      f-3     :     0.001001
  1 Ars       :     5.991859  s :     5.991859
      pz      :     3.972475  p :    11.917419
      px      :     3.972469
      py      :     3.972475
      dz2     :     0.016742  d :     0.083713
      dxz     :     0.016743
      dyz     :     0.016740
      dx2y2   :     0.016744
      dxy     :     0.016743
      f0      :     0.001001  f :     0.007009
      f+1     :     0.001001
      f-1     :     0.001001
      f+2     :     0.001001
      f-2     :     0.001001
      f+3     :     0.001001
      f-3     :     0.001001


                      *****************************
                      * MAYER POPULATION ANALYSIS *
                      *****************************

  NA   - Mulliken gross atomic population
  ZA   - Total nuclear charge
  QA   - Mulliken gross atomic charge
  VA   - Mayer's total valence
  BVA  - Mayer's bonded valence
  FA   - Mayer's free valence

  ATOM       NA         ZA         QA         VA         BVA        FA
  0 Ar    18.0000    18.0000     0.0000     0.4740     0.0001     0.4739
  1 Ar    18.0000    18.0000    -0.0000     0.4740     0.0001     0.4739

  Mayer bond orders larger than 0.100000
  => No bond orders to print


----------------------------------
MP2 DERIVATIVE INTEGRAL GENERATION
----------------------------------

Input SCF Electron Density              ... AR2forLDevaluation.scfp
Input Correlated Electron Density       ... AR2forLDevaluation.pmp2re
Input Energy Weighted Density           ... AR2forLDevaluation.wmp2.tmp
Input Wavefunction Amplitudes           ... AR2forLDevaluation.mp2tsaa.tmp

Nuclear repulsion gradient              ... done (  0.0 sec)
HCore & Overlap gradient  (SHARK)       ... done (  0.0 sec)
Analytic two-electron gradient terms    ... 
  Batch handling in the gradient evaluation:
  General contraction                   ... not used
  Memory available                      ... 4085.1 MB
  Memory per occupied orbital in Q2     ...    0.3 MB
  Memory per occupied orbital in Q3     ...    0.0 MB
  Total memory requirement per |i>      ...    0.3 MB
  Number of orbitals treated per batch  ...      8
  Number of batches to be done          ...      1
done (  1.1 sec)

---------------------------------------
MP2 TOTAL ENERGY:    -1054.038170529 Eh
---------------------------------------

The final MP2 gradient
  0:  -0.00006089  -0.00000000  -0.00000000
  1:   0.00006089   0.00000000   0.00000000

-----------------------------------
NORM OF THE MP2 GRADIENT:  0.000086
-----------------------------------

Maximum memory used throughout the entire MP2-calculation: 71.0 MB

-------------------------   --------------------
FINAL SINGLE POINT ENERGY     -1054.038170528851
-------------------------   --------------------

                                *** OPTIMIZATION RUN DONE ***


Storing optimized geometry in AR2forLDevaluation.012.xyz ... done
Storing optimized geometry and energy in AR2forLDevaluation.xyzall ... done
Storing actual gbw-file in AR2forLDevaluation.012.gbw ... done


           ************************************************************
           *        Program running with 2 parallel MPI-processes     *
           *              working on a common directory               *
           ************************************************************

------------------------------------------------------------------------------
                              ORCA PROPERTY CALCULATIONS
------------------------------------------------------------------------------

GBWName                                 ... AR2forLDevaluation.gbw
Number of atoms                         ...      2
Number of basis functions               ...    118
Max core memory                         ...   1024 MB

Electric properties:
Dipole moment                           ... YES
Quadrupole moment                       ...  NO
Static polarizability (Dipole/Dipole)   ...  NO
Static polarizability (Dipole/Quad.)    ...  NO
Static polarizability (Quad./Quad.)     ...  NO
Static polarizability (Velocity)        ...  NO

Atomic electric properties:
Dipole moment                           ...  NO
Quadrupole moment                       ...  NO
Static polarizability                   ...  NO

Choice of electric origin               ... Center of mass
Position of electric origin             ...     2.645617     0.000000     0.000000

General magnetic properties:
Magnetizability                         ...  NO

EPR properties:
g-Tensor (aka g-matrix)                 ...  NO
Zero-Field splitting spin-orbit         ...  NO
Zero-field splitting spin-spin          ...  NO
Hyperfine couplings                     ...  NO (   0 nuclei)
Quadrupole couplings                    ...  NO (   0 nuclei)
Contact density                         ...  NO (   0 nuclei)

NMR properties:
Chemical shifts                         ...  NO (   0 nuclei)
Spin-rotation constants                 ...  NO (   0 nuclei)
Spin-spin couplings                     ...  NO (   0 nuclei,    0 pairs)

Choice of magnetic origin               ... GIAO
Position of magnetic origin             ...     0.000000     0.000000     0.000000

Properties with geometric perturbations:
SCF Hessian                             ...  NO
IR spectrum                             ...  NO
VCD spectrum                            ...  NO
X-ray spectroscopy properties:
SCF XES/XAS/RIXS spectra                ...  NO


-------------
DIPOLE MOMENT
-------------

Method             : SCF
Type of density    : Electron Density
Multiplicity       :   1
Irrep              :   0
Energy             : -1053.6262745681547131 Eh
Relativity type    : 
Basis              : AO
                                X                 Y                 Z
Electronic contribution:     -0.000000000      -0.000000000      -0.000000000
Nuclear contribution   :      0.000000000       0.000000000       0.000000000
                        -----------------------------------------
Total Dipole Moment    :     -0.000000000      -0.000000000      -0.000000000
                        -----------------------------------------
Magnitude (a.u.)       :      0.000000000
Magnitude (Debye)      :      0.000000000



--------------------
Rotational spectrum 
--------------------
 
Rotational constants in cm-1:             0.000000             0.033759             0.033759 
Rotational constants in MHz :             0.000000          1012.074656          1012.074656 

Dipole components along the rotational axes: 
x,y,z [a.u.] :    -0.000000    -0.000000    -0.000000 
x,y,z [Debye]:    -0.000000    -0.000000    -0.000000 

 

-------------
DIPOLE MOMENT
-------------

Method             : MP2
Type of density    : Electron Density
Multiplicity       :   1
Level              : Unrelaxed density
Irrep              :   0
Energy             :     0.0000000000000000 Eh
Relativity type    : 
Basis              : AO
                                X                 Y                 Z
Electronic contribution:     -0.000000000      -0.000000000      -0.000000000
Nuclear contribution   :      0.000000000       0.000000000       0.000000000
                        -----------------------------------------
Total Dipole Moment    :     -0.000000000      -0.000000000      -0.000000000
                        -----------------------------------------
Magnitude (a.u.)       :      0.000000000
Magnitude (Debye)      :      0.000000000



--------------------
Rotational spectrum 
--------------------
 
Rotational constants in cm-1:             0.000000             0.033759             0.033759 
Rotational constants in MHz :             0.000000          1012.074656          1012.074656 

Dipole components along the rotational axes: 
x,y,z [a.u.] :    -0.000000    -0.000000    -0.000000 
x,y,z [Debye]:    -0.000000    -0.000000    -0.000000 

 

-------------
DIPOLE MOMENT
-------------

Method             : MP2
Type of density    : Electron Density
Multiplicity       :   1
Level              : Relaxed density
Irrep              :   0
Energy             :     0.0000000000000000 Eh
Relativity type    : 
Basis              : AO
                                X                 Y                 Z
Electronic contribution:     -0.000000000      -0.000000000      -0.000000000
Nuclear contribution   :      0.000000000       0.000000000       0.000000000
                        -----------------------------------------
Total Dipole Moment    :     -0.000000000      -0.000000000      -0.000000000
                        -----------------------------------------
Magnitude (a.u.)       :      0.000000000
Magnitude (Debye)      :      0.000000000



--------------------
Rotational spectrum 
--------------------
 
Rotational constants in cm-1:             0.000000             0.033759             0.033759 
Rotational constants in MHz :             0.000000          1012.074656          1012.074656 

Dipole components along the rotational axes: 
x,y,z [a.u.] :    -0.000000    -0.000000    -0.000000 
x,y,z [Debye]:    -0.000000    -0.000000    -0.000000 

 

Dipole moment calculation done in   0.2 sec 

Maximum memory used throughout the entire PROP-calculation: 8.8 MB
                   **** RELAXED SURFACE SCAN DONE ***

                    SUMMARY OF THE CALCULATED SURFACE

----------------------------
RELAXED SURFACE SCAN RESULTS
----------------------------

Column   1: NONAME

The Calculated Surface using the 'Actual Energy'
   2.80000000 -1054.02857190
   3.00000000 -1054.03402243
   3.20000000 -1054.03656580
   3.40000000 -1054.03768721
   3.60000000 -1054.03814092
   3.80000000 -1054.03829554
   4.00000000 -1054.03832351
   4.20000000 -1054.03830251
   4.40000000 -1054.03826634
   4.60000000 -1054.03822922
   4.80000000 -1054.03819673
   5.00000000 -1054.03817053

The Calculated Surface using the SCF energy
   2.80000000 -1053.61316862
   3.00000000 -1053.61983670
   3.20000000 -1053.62316338
   3.40000000 -1053.62479622
   3.60000000 -1053.62558804
   3.80000000 -1053.62596834
   4.00000000 -1053.62614804
   4.20000000 -1053.62622973
   4.40000000 -1053.62626367
   4.60000000 -1053.62627502
   4.80000000 -1053.62627652
   5.00000000 -1053.62627457

The Calculated Surface using the MP2 energy
   2.80000000 -1054.02857190
   3.00000000 -1054.03402243
   3.20000000 -1054.03656580
   3.40000000 -1054.03768721
   3.60000000 -1054.03814092
   3.80000000 -1054.03829554
   4.00000000 -1054.03832351
   4.20000000 -1054.03830251
   4.40000000 -1054.03826634
   4.60000000 -1054.03822922
   4.80000000 -1054.03819673
   5.00000000 -1054.03817053


--------------------------------
SUGGESTED CITATIONS FOR THIS RUN
--------------------------------

Below you find a list of papers that are relevant to this ORCA run
We neither can nor want to force you to cite these papers, but we appreciate if you do
You receive ORCA, which is the product of decades of hard work by many enthusiastic individuals, for free
The only thing we kindly ask in return is that you cite our papers,
We deeply appreciate it, if you show your appreciation for ORCA by not just citing the generic ORCA reference.

Please note that relegating all ORCA citations to the supporting information does *not* help us.
SI sections are not indexed - citations you put there will not count into any citation statistics
But we need these citations in order to attract the funding resources that allow us to do what we are doing

Therefore, if you are a happy ORCA user, please consider citing a few of the papers listed below in the main body of your paper

In addition to the list printed below, the program has created the file AR2forLDevaluation.bibtex that contains the list in bibtex format
You can import this file easily into all common literature databanks and citation aid programs


List of essential papers. We consider these as the minimum necessary citations

  1. Neese,F.
     Software update: the ORCA program system, version 5.0
     WIRES Comput. Molec. Sci., 2022 12(1)e1606
     doi.org/10.1002/wcms.1606

List of papers to cite with high priority. The work reported in these papers was absolutely
necessary for this run to complete.
Our perspective: the developers of density functionals and basis sets usually get cited in chemistry papers
Good! But without the algorithms to do something with them, the functionals or basis sets would not do anything.
Hence, in our opinion, the algorithm design and method developments papers are equally worthy of getting cited

  1. Neese,F.
     The SHARK Integral Generation and Digestion System
     J. Comp. Chem., 2022  1-16
     doi.org/10.1002/jcc.26942

List of suggested additional citations. These are papers that are important in the 'surrounding' of 
of this run, or papers that preceded the highly important papers. If you like your results we are grateful for a citation.

  1. Neese,F.
     The ORCA program system
     WIRES Comput. Molec. Sci., 2012 2(1)73-78
     doi.org/10.1002/wcms.81
  2. Neese,F.
     Software update: the ORCA program system, version 4.0
     WIRES Comput. Molec. Sci., 2018 8(1)1-6
     doi.org/10.1002/wcms.1327
  3. Neese,F.; Wennmohs,F.; Becker,U.; Riplinger,C.
     The ORCA quantum chemistry program package
     J. Chem. Phys., 2020 152 Art. No. L224108
     doi.org/10.1063/5.0004608

List of optional additional citations

  1. Neese,F.
     Approximate second-order SCF convergence for spin unrestricted wavefunctions
     Chem. Phys. Lett., 2000 325(1-3)93-98
     doi.org/10.1016/s0009-2614(00)00662-x

Timings for individual modules:

Sum of individual times          ...      168.277 sec (=   2.805 min)
Startup calculation              ...       30.998 sec (=   0.517 min)  18.4 %
SCF iterations                   ...       34.154 sec (=   0.569 min)  20.3 %
Property calculations            ...        6.332 sec (=   0.106 min)   3.8 %
MP2 module                       ...       96.689 sec (=   1.611 min)  57.5 %
Geometry relaxation              ...        0.103 sec (=   0.002 min)   0.1 %
                             ****ORCA TERMINATED NORMALLY****
TOTAL RUN TIME: 0 days 0 hours 2 minutes 59 seconds 509 msec
