
                                 *****************
                                 * O   R   C   A *
                                 *****************

                                            #,                                       
                                            ###                                      
                                            ####                                     
                                            #####                                    
                                            ######                                   
                                           ########,                                 
                                     ,,################,,,,,                         
                               ,,#################################,,                 
                          ,,##########################################,,             
                       ,#########################################, ''#####,          
                    ,#############################################,,   '####,        
                  ,##################################################,,,,####,       
                ,###########''''           ''''###############################       
              ,#####''   ,,,,##########,,,,          '''####'''          '####       
            ,##' ,,,,###########################,,,                        '##       
           ' ,,###''''                  '''############,,,                           
         ,,##''                                '''############,,,,        ,,,,,,###''
      ,#''                                            '''#######################'''  
     '                                                          ''''####''''         
             ,#######,   #######,   ,#######,      ##                                
            ,#'     '#,  ##    ##  ,#'     '#,    #''#        ,####,   ,####,        
            ##       ##  ##   ,#'  ##            #'  '#       #'       #'  '#        
            ##       ##  #######   ##           ,######,      #####,   #    #        
            '#,     ,#'  ##    ##  '#,     ,#' ,#      #,     #,   #   #,  ,#        
             '#######'   ##     ##  '#######'  #'      '#     '####' # '####'        



                #########################################################
                #                        -***-                          #
                #          Department of theory and spectroscopy        #
                #                                                       #
                #                      Frank Neese                      #
                #                                                       #
                #     Directorship, Architecture, Infrastructure        #
                #                    SHARK, DRIVERS                     #
                #        Core code/Algorithms in most modules           #
                #                                                       #
                #        Max Planck Institute fuer Kohlenforschung      #
                #                Kaiser Wilhelm Platz 1                 #
                #                 D-45470 Muelheim/Ruhr                 #
                #                      Germany                          #
                #                                                       #
                #                  All rights reserved                  #
                #                        -***-                          #
                #########################################################


                         Program Version 6.0.0  -   RELEASE  -


 With contributions from (in alphabetic order):
   Daniel Aravena         : Magnetic Suceptibility
   Michael Atanasov       : Ab Initio Ligand Field Theory (pilot matlab implementation)
   Alexander A. Auer      : GIAO ZORA, VPT2 properties, NMR spectrum
   Ute Becker             : All parallelization in ORCA, NUMFREQ, NUMCALC
   Giovanni Bistoni       : ED, misc. LED, open-shell LED, HFLD
   Martin Brehm           : Molecular dynamics
   Dmytro Bykov           : pre 5.0 version of the SCF Hessian
   Marcos Casanova-Páez   : Triplet and SCS-CIS(D). UHF-(DLPNO)-IP/EA/STEOM-CCSD. UHF-CVS-IP/STEOM-CCSD
   Vijay G. Chilkuri      : MRCI spin determinant printing, contributions to CSF-ICE
   Pauline Colinet        : FMM embedding
   Dipayan Datta          : RHF DLPNO-CCSD density
   Achintya Kumar Dutta   : EOM-CC, STEOM-CC
   Nicolas Foglia         : Exact transition moments, OPA infrastructure, MCD improvements
   Dmitry Ganyushin       : Spin-Orbit,Spin-Spin,Magnetic field MRCI
   Miquel Garcia          : C-PCM and meta-GGA Hessian, CCSD/C-PCM, Gaussian charge scheme
   Tiago L. C. Gouveia    : GS-ROHF, GS-ROCIS
   Yang Guo               : DLPNO-NEVPT2, F12-NEVPT2, CIM, IAO-localization
   Andreas Hansen         : Spin unrestricted coupled pair/coupled cluster methods
   Ingolf Harden          : AUTO-CI MPn and infrastructure 
   Benjamin Helmich-Paris : MC-RPA, TRAH-(SCF,CASSCF), AVAS, COSX integrals, SCF dyn. polar.
   Lee Huntington         : MR-EOM, pCC
   Robert Izsak           : Overlap fitted RIJCOSX, COSX-SCS-MP3, EOM
   Riya Kayal             : Wick's Theorem for AUTO-CI, AUTO-CI UHF-CCSDT
   Emily Kempfer          : AUTO-CI, RHF CISDT and CCSDT
   Christian Kollmar      : KDIIS, OOCD, Brueckner-CCSD(T), CCSD density, CASPT2, CASPT2-K, improved NEVPT2
   Axel Koslowski         : Symmetry handling
   Simone Kossmann        : Meta GGA functionals, TD-DFT gradient, OOMP2, (MP2 Hessian; deprecated post 5.0)
   Lucas Lang             : DCDCAS
   Marvin Lechner         : AUTO-CI (C++ implementation), FIC-MRCC
   Spencer Leger          : CASSCF response
   Dagmar Lenk            : GEPOL surface, SMD, ORCA-2-JSON
   Dimitrios Liakos       : Extrapolation schemes; Compound Job, initial MDCI parallelization
   Dimitrios Manganas     : Further ROCIS development; embedding schemes. LFT, Crystal Embedding
   Dimitrios Pantazis     : SARC Basis sets
   Anastasios Papadopoulos: AUTO-CI, single reference methods and gradients
   Taras Petrenko         : pre 6.0 DFT Hessian and TD-DFT gradient, (ASA, deprecated), ECA, 1-Electron XAS/XES, NRVS
   Peter Pinski           : DLPNO-MP2, DLPNO-MP2 Gradient
   Christoph Reimann      : Effective Core Potentials
   Marius Retegan         : Local ZFS, SOC
   Christoph Riplinger    : Optimizer, TS searches, QM/MM, DLPNO-CCSD(T), (RO)-DLPNO pert. Triples
   Michael Roemelt        : Original ROCIS implementation
   Masaaki Saitow         : Open-shell DLPNO-CCSD energy and density
   Barbara Sandhoefer     : DKH picture change effects
   Kantharuban Sivalingam : CASSCF convergence/infrastructure, NEVPT2 and variants, FIC-MRCI
   Bernardo de Souza      : ESD, SOC TD-DFT
   Georgi Stoychev        : AutoAux, RI-MP2 NMR, DLPNO-MP2 response, X2C
   Van Anh Tran           : RI-MP2 g-tensors
   Willem Van den Heuvel  : Paramagnetic NMR
   Zikuan Wang            : NOTCH, Electric field optimization 
   Frank Wennmohs         : Technical directorship and infrastructure
   Hang Xu                : AUTO-CI-Response properties 


 We gratefully acknowledge several colleagues who have allowed us to
 interface, adapt or use parts of their codes:
   Stefan Grimme, W. Hujo, H. Kruse, P. Pracht,  : VdW corrections, initial TS optimization,
                  C. Bannwarth, S. Ehlert,         DFT functionals, gCP, sTDA/sTD-DF
                  L. Wittmann, M. Mueller
   Ed Valeev, F. Pavosevic, A. Kumar             : LibInt (2-el integral package), F12 methods
   Garnet Chan, S. Sharma, J. Yang, R. Olivares  : DMRG
   Ulf Ekstrom                                   : XCFun DFT Library
   Mihaly Kallay                                 : mrcc  (arbitrary order and MRCC methods)
   Frank Weinhold                                : gennbo (NPA and NBO analysis)
   Simon Mueller                                 : openCOSMO-RS
   Christopher J. Cramer and Donald G. Truhlar   : smd solvation model
   Lars Goerigk                                  : TD-DFT with DH, B97 family of functionals
   V. Asgeirsson, H. Jonsson                     : NEB implementation
   FAccTs GmbH                                   : IRC, NEB, NEB-TS, DLPNO-Multilevel, CI-OPT
                                                   MM, QMMM, 2- and 3-layer-ONIOM, Crystal-QMMM,
                                                   LR-CPCM, SF, NACMEs, symmetry and pop. for TD-DFT,
                                                   nearIR, NL-DFT gradient (VV10), updates on ESD,
                                                   ML-optimized integration grids, MBIS, APM,
                                                   GOAT, DOCKER, SOLVATOR, interface openCOSMO-RS
   S Lehtola, MJT Oliveira, MAL Marques          : LibXC Library
   Liviu Ungur et al                             : ANISO software


 Your calculation uses the libint2 library for the computation of 2-el integrals
 For citations please refer to: http://libint.valeyev.net

 Your ORCA version has been built with support for libXC version: 6.2.2
 For citations please refer to: https://libxc.gitlab.io

 This ORCA versions uses:
   CBLAS   interface :  Fast vector & matrix operations
   LAPACKE interface :  Fast linear algebra routines
   SCALAPACK package :  Parallel linear algebra routines
   Shared memory     :  Shared parallel matrices
   BLAS/LAPACK       :  OpenBLAS 0.3.27  USE64BITINT DYNAMIC_ARCH NO_AFFINITY Haswell SINGLE_THREADED
        Core in use  :  Haswell
   Copyright (c) 2011-2014, The OpenBLAS Project


================================================================================

----- Orbital basis set information -----
Your calculation utilizes the basis: aug-cc-pVDZ 
    H, B-Ne : Obtained from the ccRepo (grant-hill.group.shef.ac.uk/ccrepo) Feb. 2017
              R. A. Kendall, T. H. Dunning, Jr., R. J. Harrison, J. Chem. Phys. 96, 6796 (1992)
         He : Obtained from the ccRepo (grant-hill.group.shef.ac.uk/ccrepo) Feb. 2017
              D. E. Woon, T. H. Dunning, Jr., J. Chem. Phys. 100, 2975 (1994)
  Li-Be, Na : Obtained from the ccRepo (grant-hill.group.shef.ac.uk/ccrepo) Feb. 2017
              B. P. Prascher, D. E. Woon, K. A. Peterson, T. H. Dunning, Jr., A. K. Wilson, Theor. Chem. Acc. 128, 69 (2011)
         Mg : Obtained from the Peterson Research Group Website (tyr0.chem.wsu.edu/~kipeters) Feb. 2017
              B. P. Prascher, D. E. Woon, K. A. Peterson, T. H. Dunning, Jr., A. K. Wilson, Theor. Chem. Acc. 128, 69 (2011)
      Al-Ar : Obtained from the ccRepo (grant-hill.group.shef.ac.uk/ccrepo) Feb. 2017
              D. E. Woon, T. H. Dunning, Jr., J. Chem. Phys. 98, 1358 (1993)
      Sc-Zn : Obtained from the ccRepo (grant-hill.group.shef.ac.uk/ccrepo) Feb. 2017
              N. B. Balabanov, K. A. Peterson, J. Chem. Phys. 123, 064107 (2005)
              N. B. Balabanov, K. A. Peterson, J. Chem. Phys. 125, 074110 (2006)
      Ga-Kr : Obtained from the ccRepo (grant-hill.group.shef.ac.uk/ccrepo) Feb. 2017
              A. K. Wilson, D. E. Woon, K. A. Peterson, T. H. Dunning, Jr., J. Chem. Phys. 110, 7667 (1999)

----- AuxC basis set information -----
Your calculation utilizes the auxiliary basis: aug-cc-pVDZ/C 
  H-He, B, Ne, Al-Ar, Ga-Ge, Se-Br : Obtained from the EMSL Basis Set Exchange (bse.pnl.gov) Feb. 2017
                                     F. Weigend, A. Kohn, C. Hattig, J. Chem. Phys. 116, 3175 (2002)
                            Be, Mg : Obtained from the TURBOMOLE 7.0 basis set library
                                     C. Haettig, Phys. Chem. Chem. Phys. 7, 59 (2005)
                               C-F : Obtained from the EMSL Basis Set Exchange (bse.pnl.gov) Feb. 2017
                                     C. Haettig, Phys. Chem. Chem. Phys. 7, 59 (2005)
                                     F. Weigend, A. Kohn, C. Hattig, J. Chem. Phys. 116, 3175 (2002)
                                As : Obtained from the EMSL Basis Set Exchange (bse.pnl.gov) Feb. 2017
                                     C. Haettig, G. Schmitz, J. Kossmann, Phys. Chem. Chem. Phys. 14, 6549 (2012)
                                Kr : Obtained from the TURBOMOLE 7.0 basis set library
                                     F. Weigend, A. Kohn, C. Hattig, J. Chem. Phys. 116, 3175 (2002)
                                     S function revised in Sep. 2009

================================================================================
                                        WARNINGS
                       Please study these warnings very carefully!
================================================================================


WARNING: Post HF methods need fully converged wavefunctions
  ===> : Setting SCFConvForced true
         You can overwrite this default with %scf ConvForced false 


================================================================================
                                       INPUT FILE
================================================================================
NAME = AR2LD_2.8.inp
|  1> # MP2 scan of the potential energy curve for Ar...Ar
|  2>         ! HFLD aug-cc-pvdz aug-cc-pvdz/C verytightscf
|  3>         *xyz 0 1
|  4>         Ar(1)	0.000000000000000	0.000000000000000	0.00000000000000
|  5>         Ar(2)	2.8	0.000000000000000	0.00000000000000
|  6>         **                         ****END OF INPUT****
================================================================================

                       ****************************
                       * Single Point Calculation *
                       ****************************

---------------------------------
CARTESIAN COORDINATES (ANGSTROEM)
---------------------------------
  Ar     0.000000    0.000000    0.000000
  Ar     2.800000    0.000000    0.000000

----------------------------
CARTESIAN COORDINATES (A.U.)
----------------------------
  NO LB      ZA    FRAG     MASS         X           Y           Z
   0 Ar   18.0000    1    39.948    0.000000    0.000000    0.000000
   1 Ar   18.0000    2    39.948    5.291233    0.000000    0.000000

----------------------------------------------
CARTESIAN COORDINATES OF FRAGMENTS (ANGSTROEM)
----------------------------------------------

 FRAGMENT 1 
  Ar    0.000000    0.000000    0.000000

 FRAGMENT 2 
  Ar    2.800000    0.000000    0.000000

--------------------------------
INTERNAL COORDINATES (ANGSTROEM)
--------------------------------
 Ar     0   0   0     0.000000000000     0.00000000     0.00000000
 Ar     1   0   0     2.800000000000     0.00000000     0.00000000

---------------------------
INTERNAL COORDINATES (A.U.)
---------------------------
 Ar     0   0   0     0.000000000000     0.00000000     0.00000000
 Ar     1   0   0     5.291233174980     0.00000000     0.00000000

---------------------
BASIS SET INFORMATION
---------------------
There are 1 groups of distinct atoms

 Group   1 Type Ar  : 35s16p2d contracted to 5s4p2d pattern {11111111/7711/11}

Atom   0Ar   basis set group =>   1
Atom   1Ar   basis set group =>   1
---------------------------------
AUXILIARY/C BASIS SET INFORMATION
---------------------------------
There are 1 groups of distinct atoms

 Group   1 Type Ar  : 10s8p6d4f contracted to 10s8p6d4f pattern {1111111111/11111111/111111/1111}

Atom   0Ar   basis set group =>   1
Atom   1Ar   basis set group =>   1
------------------------------------------------------------------------------
                             ORCA STARTUP CALCULATIONS
------------------------------------------------------------------------------
------------------------------------------------------------------------------
                   ___                                                        
                  /   \      - P O W E R E D   B Y -                         
                 /     \                                                     
                 |  |  |   _    _      __       _____    __    __             
                 |  |  |  | |  | |    /  \     |  _  \  |  |  /  |          
                  \  \/   | |  | |   /    \    | | | |  |  | /  /          
                 / \  \   | |__| |  /  /\  \   | |_| |  |  |/  /          
                |  |  |   |  __  | /  /__\  \  |    /   |      \           
                |  |  |   | |  | | |   __   |  |    \   |  |\   \          
                \     /   | |  | | |  |  |  |  | |\  \  |  | \   \       
                 \___/    |_|  |_| |__|  |__|  |_| \__\ |__|  \__/        
                                                                              
                      - O R C A' S   B I G   F R I E N D -                    
                                      &                                       
                       - I N T E G R A L  F E E D E R -                       
                                                                              
 v1 FN, 2020, v2 2021, v3 2022-2024                                           
------------------------------------------------------------------------------


----------------------
SHARK INTEGRAL PACKAGE
----------------------

Number of atoms                             ...      2
Number of basis functions                   ...    100
Number of shells                            ...     48
Maximum angular momentum                    ...      2
Integral batch strategy                     ... SHARK/LIBINT Hybrid
RI-J (if used) integral strategy            ... SPLIT-RIJ (Revised 2003 algorithm where possible)
Printlevel                                  ...      1
Contraction scheme used                     ... PARTIAL GENERAL contraction
Prescreening option                         ... SCHWARTZ
   Thresh                                   ... 1.000e-12
   Tcut                                     ... 1.000e-14
   Tpresel                                  ... 1.000e-14 
Coulomb Range Separation                    ... NOT USED
Exchange Range Separation                   ... NOT USED
Multipole approximations                    ... NOT USED
Finite Nucleus Model                        ... NOT USED
CABS basis                                  ... NOT available
Auxiliary Coulomb fitting basis             ... NOT available
Auxiliary J/K fitting basis                 ... NOT available
Auxiliary Correlation fitting basis         ... AVAILABLE
   # of basis functions in Aux-C            ...    184
   # of shells in Aux-C                     ...     56
   Maximum angular momentum in Aux-C        ...      3
Auxiliary 'external' fitting basis          ... NOT available

Checking pre-screening integrals            ... done (  0.0 sec) Dimension = 48
Save PGC pre-screening integrals            ... done (  0.0 sec) Dimension = 48
Calculate PGC overlap integrals             ... done (  0.0 sec) Dimension = 22
Calculating pre-screening integrals (ORCA)  ... done (  0.1 sec) Dimension = 22
Check shell pair data                       ... done (  0.0 sec)
Shell pair information
Shell pair cut-off parameter TPreSel        ...   1.0e-14
Total number of shell pairs                 ...      1176
Shell pairs after pre-screening             ...       925
Total number of primitive shell pairs       ...      1176
Primitive shell pairs kept                  ...       925
          la=0 lb=0:    251 shell pairs
          la=1 lb=0:    350 shell pairs
          la=1 lb=1:    138 shell pairs
          la=2 lb=0:    104 shell pairs
          la=2 lb=1:     72 shell pairs
          la=2 lb=2:     10 shell pairs

Calculating one electron integrals          ... done (  0.0 sec)
Calculating RI/C V-Matrix + Cholesky decomp.... done (  0.0 sec)
Calculating Nuclear repulsion               ... done (  0.0 sec) ENN=     61.233362674714 Eh

Diagonalization of the overlap matrix:
Smallest eigenvalue                        ... 1.807e-02
Time for diagonalization                   ...    0.000 sec
Threshold for overlap eigenvalues          ... 1.000e-07
Number of eigenvalues below threshold      ... 0
Time for construction of square roots      ...    0.000 sec
Total time needed                          ...    0.001 sec

-------------------
DFT GRID GENERATION
-------------------

General Integration Accuracy     IntAcc      ... 4.388
Radial Grid Type                 RadialGrid  ... OptM3 with GC (2021)
Angular Grid (max. ang.)         AngularGrid ... 4 (Lebedev-302)
Angular grid pruning method      GridPruning ... 4 (adaptive)
Weight generation scheme         WeightScheme... mBecke (2022)
Basis function cutoff            BFCut       ... 1.0000e-12
Integration weight cutoff        WCut        ... 1.0000e-14
Partially contracted basis set               ... off
Rotationally invariant grid construction     ... off
Angular grids for H and He will be reduced by one unit

Total number of grid points                  ...    14720
Total number of batches                      ...      232
Average number of points per batch           ...       63
Average number of grid points per atom       ...     7360

---------------------
SHARK GRID GENERATION
---------------------

General Integration Accuracy     IntAcc      ... 4.388
Radial Grid Type                 RadialGrid  ... OptM3 with GC (2021)
Angular Grid (max. ang.)         AngularGrid ... 4 (Lebedev-302)
Angular grid pruning method      GridPruning ... 4 (adaptive)
Weight generation scheme         WeightScheme... mBecke (2022)
Basis function cutoff            BFCut       ... 1.0000e-12
Integration weight cutoff        WCut        ... 1.0000e-14
Partially contracted basis set               ... off
Rotationally invariant grid construction     ... off
Angular grids for H and He will be reduced by one unit
Core-polarized basis detected: some atoms will have their core
                               angular grid increased.
Steep s-basis detected: some atoms will have their radial
                        grid points doubled.

Total number of grid points                  ...    38678
Total number of batches                      ...      606
Average number of points per batch           ...       63
Average number of grid points per atom       ...    19339
Initializing property integral containers    ... done (  0.0 sec)

SHARK setup successfully completed in   0.9 seconds

Maximum memory used throughout the entire STARTUP-calculation: 26.3 MB
-------------------------------------------------------------------------------
                                 ORCA GUESS
                   Start orbitals & Density for SCF / CASSCF
-------------------------------------------------------------------------------

------------
SCF SETTINGS
------------
Hamiltonian:
 Ab initio Hamiltonian  Method          .... Hartree-Fock(GTOs)


General Settings:
 Integral files         IntName         .... AR2LD_2.8
 Hartree-Fock type      HFTyp           .... RHF
 Total Charge           Charge          ....    0
 Multiplicity           Mult            ....    1
 Number of Electrons    NEL             ....   36
 Basis Dimension        Dim             ....   54
 Nuclear Repulsion      ENuc            ....     61.2333626747 Eh

Convergence Acceleration:
 AO-DIIS                CNVDIIS         .... on
   Start iteration      DIISMaxIt       ....    12
   Startup error        DIISStart       ....  0.200000
   # of expansion vecs  DIISMaxEq       ....     5
   Bias factor          DIISBfac        ....   1.050
   Max. coefficient     DIISMaxC        ....  10.000
 MO-DIIS                CNVKDIIS        .... off
 Trust-Rad. Augm. Hess. CNVTRAH         .... auto
   Auto Start mean grad. ratio tolernc. ....  1.125000
   Auto Start start iteration           ....    50
   Auto Start num. interpolation iter.  ....    10
   Max. Number of Micro iterations      ....    24
   Max. Number of Macro iterations      .... Maxiter - #DIIS iter
   Number of Davidson start vectors     ....     2
   Converg. threshold    (grad. norm)   ....   2.000e-06
   Grad. Scal. Fac. for Micro threshold ....   0.100
   Minimum threshold for Micro iter.    ....   1.000e-02
   NR start threshold (gradient norm)   ....   1.000e-04
   Initial trust radius                 ....   0.400
   Minimum AH scaling param. (alpha)    ....   1.000
   Maximum AH scaling param. (alpha)    .... 1000.000
   Quad. conv. algorithm                .... NR
   White noise on init. David. guess    .... on
   Maximum white noise                  ....   0.010
   Pseudo random numbers                .... off
   Inactive MOs                         .... canonical
   Orbital update algorithm             .... Taylor
   Preconditioner                       .... Diag
   Full preconditioner red. dimension   ....   250
 SOSCF                  CNVSOSCF        .... on
   Start iteration      SOSCFMaxIt      ....   150
   Startup grad/error   SOSCFStart      ....  0.003300
   Hessian update       SOSCFHessUp     .... L-BFGS
 Level Shifting         CNVShift        .... on
   Level shift para.    LevelShift      ....    0.2500
   Turn off err/grad.   ShiftErr        ....    0.0010
 Zerner damping         CNVZerner       .... off
 Static damping         CNVDamp         .... on
   Fraction old density DampFac         ....    0.7000
   Max. Damping (<1)    DampMax         ....    0.9800
   Min. Damping (>=0)   DampMin         ....    0.0000
   Turn off err/grad.   DampErr         ....    0.1000

SCF Procedure:
 Maximum # iterations   MaxIter         ....   125
 SCF integral mode      SCFMode         .... Direct
   Integral package                     .... SHARK and LIBINT hybrid scheme
 Reset frequency        DirectResetFreq ....    20
 Integral Threshold     Thresh          ....  1.000e-12 Eh
 Primitive CutOff       TCut            ....  1.000e-14 Eh

Convergence Tolerance:
 Convergence Check Mode ConvCheckMode   .... Total+1el-Energy
 Convergence forced     ConvForced      .... 1
 Energy Change          TolE            ....  1.000e-09 Eh
 1-El. energy change                    ....  1.000e-06 Eh
 Orbital Gradient       TolG            ....  2.000e-06
 Orbital Rotation angle TolX            ....  2.000e-06
 DIIS Error             TolErr          ....  1.000e-08

------------------------------
INITIAL GUESS: MODEL POTENTIAL
------------------------------
Loading Hartree-Fock densities                     ... done
Calculating cut-offs                               ... done
Initializing the effective Hamiltonian             ... done
Setting up the integral package (SHARK)            ... done
Starting the Coulomb interaction                   ... done (   0.0 sec)
Making the grid                                    ... done (   0.0 sec)
Mapping shells                                     ... done
Starting the XC term evaluation                    ... done (   0.0 sec)
Transforming the Hamiltonian                       ... done (   0.0 sec)
Diagonalizing the Hamiltonian                      ... done (   0.0 sec)
Back transforming the eigenvectors                 ... done (   0.0 sec)
Now organizing SCF variables                       ... done
                      ------------------
                      INITIAL GUESS DONE (   0.0 sec)
                      ------------------
             **** ENERGY FILE WAS UPDATED (AR2LD_2.8.en.tmp) ****
Finished Guess after   0.1 sec
Maximum memory used throughout the entire GUESS-calculation: 5.3 MB

-------------------------------------------------------------------------------------------
                                      ORCA LEAN-SCF
                              memory conserving SCF solver
-------------------------------------------------------------------------------------------

----------------------------------------D-I-I-S--------------------------------------------
Iteration    Energy (Eh)           Delta-E    RMSDP     MaxDP     DIISErr   Damp  Time(sec)
-------------------------------------------------------------------------------------------
               ***  Starting incremental Fock matrix formation  ***
    1    -1053.5762179895161808     0.00e+00  1.37e-03  1.74e-02  9.04e-02  0.700   0.2
    2    -1053.5798134546264464    -3.60e-03  1.08e-03  1.27e-02  6.48e-02  0.700   0.2
                               ***Turning on AO-DIIS***
    3    -1053.5824328480605345    -2.62e-03  8.57e-04  9.29e-03  4.61e-02  0.700   0.2
    4    -1053.5843194840131218    -1.89e-03  2.10e-03  2.18e-02  3.24e-02  0.000   0.2
                              *** Initializing SOSCF ***
---------------------------------------S-O-S-C-F--------------------------------------
Iteration    Energy (Eh)           Delta-E    RMSDP     MaxDP     MaxGrad    Time(sec)
--------------------------------------------------------------------------------------
    5    -1053.5889377810110545    -4.62e-03  1.04e-04  9.20e-04  1.07e-03     0.2
               *** Restarting incremental Fock matrix formation ***
    6    -1053.5889439295317516    -6.15e-06  4.94e-05  5.42e-04  2.46e-04     0.2
    7    -1053.5889449879271069    -1.06e-06  1.80e-05  1.79e-04  6.11e-05     0.2
    8    -1053.5889450563129230    -6.84e-08  1.03e-06  1.62e-05  8.32e-06     0.1
    9    -1053.5889450566544383    -3.42e-10  1.95e-07  1.98e-06  1.12e-06     0.1
                 **** Energy Check signals convergence ****

               *****************************************************
               *                     SUCCESS                       *
               *           SCF CONVERGED AFTER   9 CYCLES          *
               *****************************************************

             **** ENERGY FILE WAS UPDATED (AR2LD_2.8.en.tmp) ****

----------------
TOTAL SCF ENERGY
----------------

Total Energy       :      -1053.58894505665444 Eh          -28669.61273 eV

Components:
Nuclear Repulsion  :         61.23336267471429 Eh            1666.24451 eV
Electronic Energy  :      -1114.82230773136871 Eh          -30335.85724 eV
One Electron Energy:      -1578.92510677713290 Eh          -42964.73644 eV
Two Electron Energy:        464.10279904576419 Eh           12628.87920 eV

Virial components:
Potential Energy   :      -2107.31081432019982 Eh          -57342.84251 eV
Kinetic Energy     :       1053.72186926354561 Eh           28673.22978 eV
Virial Ratio       :          1.99987385266381

---------------
SCF CONVERGENCE
---------------

  Last Energy change         ...    3.4152e-10  Tolerance :   1.0000e-09
  Last MAX-Density change    ...    1.9831e-06  Tolerance :   1.0000e-08
  Last RMS-Density change    ...    1.9515e-07  Tolerance :   1.0000e-09
  Last DIIS Error            ...    1.0712e-03  Tolerance :   1.0000e-08
  Last Orbital Gradient      ...    1.1238e-06  Tolerance :   2.0000e-06
  Last Orbital Rotation      ...    1.2969e-06  Tolerance :   2.0000e-06


----------------
ORBITAL ENERGIES
----------------

  NO   OCC          E(Eh)            E(eV) 
   0   2.0000    -118.605738     -3227.4262 
   1   2.0000    -118.605737     -3227.4262 
   2   2.0000     -12.318853      -335.2130 
   3   2.0000     -12.318825      -335.2123 
   4   2.0000      -9.567421      -260.3428 
   5   2.0000      -9.567420      -260.3427 
   6   2.0000      -9.567324      -260.3401 
   7   2.0000      -9.567324      -260.3401 
   8   2.0000      -9.567321      -260.3400 
   9   2.0000      -9.567321      -260.3400 
  10   2.0000      -1.287940       -35.0466 
  11   2.0000      -1.269761       -34.5520 
  12   2.0000      -0.633603       -17.2412 
  13   2.0000      -0.599609       -16.3162 
  14   2.0000      -0.599609       -16.3162 
  15   2.0000      -0.582840       -15.8599 
  16   2.0000      -0.582840       -15.8599 
  17   2.0000      -0.550266       -14.9735 
  18   0.0000       0.122253         3.3267 
  19   0.0000       0.142496         3.8775 
  20   0.0000       0.142496         3.8775 
  21   0.0000       0.149077         4.0566 
  22   0.0000       0.178214         4.8494 
  23   0.0000       0.178214         4.8494 
  24   0.0000       0.192728         5.2444 
  25   0.0000       0.307507         8.3677 
  26   0.0000       0.472390        12.8544 
  27   0.0000       0.472390        12.8544 
  28   0.0000       0.521572        14.1927 
*Only the first 10 virtual orbitals were printed.

                    ********************************
                    * MULLIKEN POPULATION ANALYSIS *
                    ********************************

-------------------------
MULLIKEN FRAGMENT CHARGES
-------------------------
 Fragment   0 :   0.000000
 Fragment   1 :  -0.000000
Sum of fragment charges:    0.0000000

---------------------------------
MULLIKEN FRAGMENT OVERLAP CHARGES
---------------------------------
                  0          1    
      0      18.061503  -0.123005
      1      -0.123005  18.061503

-----------------------
MULLIKEN ATOMIC CHARGES
-----------------------
   0 Ar:    0.000000
   1 Ar:   -0.000000
Sum of atomic charges:    0.0000000

--------------------------------
MULLIKEN REDUCED ORBITAL CHARGES
--------------------------------
  0 Ars       :     5.995373  s :     5.995373
      pz      :     3.999671  p :    12.003280
      px      :     4.003939
      py      :     3.999671
      dz2     :     0.000172  d :     0.001347
      dxz     :     0.000329
      dyz     :     0.000000
      dx2y2   :     0.000516
      dxy     :     0.000329

  1 Ars       :     5.995373  s :     5.995373
      pz      :     3.999671  p :    12.003280
      px      :     4.003939
      py      :     3.999671
      dz2     :     0.000172  d :     0.001347
      dxz     :     0.000329
      dyz     :     0.000000
      dx2y2   :     0.000516
      dxy     :     0.000329



                     *******************************
                     * LOEWDIN POPULATION ANALYSIS *
                     *******************************

------------------------
LOEWDIN FRAGMENT CHARGES
------------------------
 Fragment   0 :  -0.000000
 Fragment   1 :   0.000000

----------------------------
LOEWDIN FRAGMENT BOND ORDERS
----------------------------
                  0          1    
      0      18.000000   0.287462
      1       0.287462  18.000000

----------------------
LOEWDIN ATOMIC CHARGES
----------------------
   0 Ar:   -0.000000
   1 Ar:    0.000000

-------------------------------
LOEWDIN REDUCED ORBITAL CHARGES
-------------------------------
  0 Ars       :     5.973964  s :     5.973964
      pz      :     3.998521  p :    12.002531
      px      :     4.005490
      py      :     3.998521
      dz2     :     0.005137  d :     0.023505
      dxz     :     0.001479
      dyz     :     0.000000
      dx2y2   :     0.015410
      dxy     :     0.001479

  1 Ars       :     5.973964  s :     5.973964
      pz      :     3.998521  p :    12.002531
      px      :     4.005490
      py      :     3.998521
      dz2     :     0.005137  d :     0.023505
      dxz     :     0.001479
      dyz     :     0.000000
      dx2y2   :     0.015410
      dxy     :     0.001479



                      *****************************
                      * MAYER POPULATION ANALYSIS *
                      *****************************

  NA   - Mulliken gross atomic population
  ZA   - Total nuclear charge
  QA   - Mulliken gross atomic charge
  VA   - Mayer's total valence
  BVA  - Mayer's bonded valence
  FA   - Mayer's free valence

  ATOM       NA         ZA         QA         VA         BVA        FA
  0 Ar    18.0000    18.0000     0.0000    -0.0257    -0.0257     0.0000
  1 Ar    18.0000    18.0000    -0.0000    -0.0257    -0.0257    -0.0000

  Mayer bond orders larger than 0.100000
  => no bond orders to print

-------
TIMINGS
-------

Total SCF time: 0 days 0 hours 0 min 1 sec 

Total time                  ....       1.511 sec
Sum of individual times     ....       1.502 sec  ( 99.4%)

SCF preparation             ....       0.046 sec  (  3.1%)
Fock matrix formation       ....       1.437 sec  ( 95.1%)
  Startup                   ....       0.001 sec  (  0.0% of F)
  Coulomb+Exchange Fock     ....       1.432 sec  ( 99.7% of F)
Diagonalization             ....       0.000 sec  (  0.0%)
Density matrix formation    ....       0.004 sec  (  0.2%)
Total Energy calculation    ....       0.001 sec  (  0.0%)
Population analysis         ....       0.001 sec  (  0.1%)
Orbital Transformation      ....       0.004 sec  (  0.2%)
Orbital Orthonormalization  ....       0.000 sec  (  0.0%)
DIIS solution               ....       0.007 sec  (  0.5%)
SOSCF solution              ....       0.003 sec  (  0.2%)
Finished LeanSCF after   1.5 sec

Maximum memory used throughout the entire LEANSCF-calculation: 7.3 MB

------------------------------------------------------------------------------
                         ORCA PROPERTY INTEGRAL CALCULATIONS
------------------------------------------------------------------------------

GBWName                                   ... AR2LD_2.8.gbw
Number of atoms                           ...      2
Number of basis functions                 ...    100
Max core memory                           ...   1024 MB

Dipole integrals                          ... YES
Quadrupole integrals                      ...  NO
Linear momentum integrals                 ... YES
Angular momentum integrals                ... YES
Higher moments length integrals           ...  NO
Higher moments velocity integrals         ...  NO
Kinetic energy integrals                  ...  NO
GIAO right hand sides                     ...  NO
GIAO dipole derivative integrals          ...  NO
SOC integrals                             ...  NO
EPR diamagnetic integrals (GIAO)          ...  NO
EPR gauge integrals                       ...  NO
Field gradient integrals                  ...  NO (   0 nuclei)
Spin-dipole/Fermi contact integrals       ...  NO (   0 nuclei)
Contact density integrals                 ...  NO (   0 nuclei)
Nucleus-orbit integrals                   ...  NO (   0 nuclei)
Geometric perturbations                   ...  NO (   2 nuclei)

Choice of electric origin   ... Center of mass
Position of electric origin ... (  2.6456,  0.0000,  0.0000) 
Choice of magnetic origin   ... GIAO
Position of magnetic origin ... (  0.0000,  0.0000,  0.0000) 

Calculating integrals                     ... Electric Dipole (Length)     done (  0.0 sec)
Calculating integrals                     ... Linear Momentum              done (  0.0 sec)
Calculating integrals                     ... Angular Momentum  (ElOri)    done (  0.0 sec)

Property integrals calculated in   0.0 sec

Maximum memory used throughout the entire PROPINT-calculation: 5.4 MB


--------------------------------------------------------------------------------
                             ORCA-MATRIX DRIVEN CI
--------------------------------------------------------------------------------


Wavefunction type
-----------------
Correlation treatment                      ...      CCSD     
Single excitations                         ... ON
Orbital optimization                       ... OFF
Calculation of Z vector                    ... OFF
Calculation of Brueckner orbitals          ... OFF
Perturbative triple excitations            ... OFF
Calculation of F12 correction              ... OFF
Frozen core treatment                      ... chemical core (20 el)
Reference Wavefunction                     ... RHF
  Internal Orbitals:    10 ...   17 (  8 MO's/ 16 electrons)
  Virtual  Orbitals:    18 ...   53 ( 36 MO's              )
Number of AO's                             ...     54
Number of electrons                        ...     36
Number of correlated electrons             ...     16

Algorithmic settings
--------------------
Integral transformation                    ... All integrals via the RI transformation
K(C) Formation                             ... RI-DLPNO
   PNO-Integral Storage                    ... ON DISK
   PNO occupation number cut-off           ... 3.330e-07
   Singles PNO occupation number cut-off   ... 9.990e-09
   PNO Mulliken prescreening cut-off       ... 1.000e-03
   Domain cut-off (Mulliken population)    ... 1.000e-03
   PNO Normalization                       ...    1
Maximum number of iterations               ...        50
Convergence tolerance (max. residuum)      ... 1.000e-06
Level shift for amplitude update           ... 2.000e-01
Maximum number of DIIS vectors             ...         7
DIIS turned on at iteration                ...         0
Damping before turning on DIIS             ...     0.500
Damping after turning on DIIS              ...     0.000
Pair specific amplitude update             ... OFF
Natural orbital iterations                 ... OFF
Perturbative natural orbital generation    ... OFF
Printlevel                                 ... 2

Singles Fock matrix elements calculated using PNOs.

Memory handling:
----------------
Maximum memory for working arrays          ...    512 MB
Data storage in matrix containers          ... UNCOMPRESSED
Data type for integral storage             ... DOUBLE
In-Core Storage of quantities:
   Amplitudes+Sigma Vector      ... NO
   J+K operators                ... NO
   DIIS vectors                 ... NO
   3-external integrals         ... NO
   4-external integrals         ... NO

Localization treatment:
-----------------------
Localization option                        ...    2
Localization threshhold                    ... -1.0e+00
Using relative localization threshhold     ... 1.0e-08
Neglect threshold for strong pairs         ... 1.000e-05 Eh
Prescreening threshold for very weak pairs ... 1.000e-07 Eh
Using randomized seed for localization     ... on

Initializing the integral package          ... done
Localizing the valence orbitals
Localizing the valence orbitals
Localization sum:    60.696710118 
------------------------------------------------------------------------------
                           ORCA ORBITAL LOCALIZATION
------------------------------------------------------------------------------

Input orbitals are from                  ... AR2LD_2.8.proc0.gbw
Output orbitals are to                   ... AR2LD_2.8.proc0.loc
Max. number of iterations                ... 128
Localizations seeded randomly            ... on
Convergence tolerance                    ... 2.000e-07
Using relative localization threshhold   ... 1.000e-08
Threshold for strong local MOs           ... 9.500e-01
Threshold for bond MOs                   ... 8.500e-01
Operator                                 ... 0
Orbital range for localization           ... 10 to 17
Localization criterion                   ... FOSTER-BOYS
Doing the dipole integrals     ... o.k.
Entering Jacobi type localization:
Using Cholesky decomposition as initial guess.
Initial value of the localization sum :    56.059258
ITERATION   0 : L=   60.6260316797 DL=  4.57e+00 (MAX-T)=  45.000 
ITERATION   1 : L=   60.6323077653 DL=  6.28e-03 (MAX-T)=   1.519 
ITERATION   2 : L=   60.6361232854 DL=  3.82e-03 (MAX-T)=   1.180 
ITERATION   3 : L=   60.6401638607 DL=  4.04e-03 (MAX-T)=   1.230 
ITERATION   4 : L=   60.6441033330 DL=  3.94e-03 (MAX-T)=   1.396 
ITERATION   5 : L=   60.6496826659 DL=  5.58e-03 (MAX-T)=   1.504 
ITERATION   6 : L=   60.6543903041 DL=  4.71e-03 (MAX-T)=   1.496 
ITERATION   7 : L=   60.6598228349 DL=  5.43e-03 (MAX-T)=   1.546 
ITERATION   8 : L=   60.6644314949 DL=  4.61e-03 (MAX-T)=   1.547 
ITERATION   9 : L=   60.6697454352 DL=  5.31e-03 (MAX-T)=   1.184 
ITERATION  10 : L=   60.6749181337 DL=  5.17e-03 (MAX-T)=   1.718 
ITERATION  11 : L=   60.6785269160 DL=  3.61e-03 (MAX-T)=   1.546 
ITERATION  12 : L=   60.6826740470 DL=  4.15e-03 (MAX-T)=   1.479 
ITERATION  13 : L=   60.6854120579 DL=  2.74e-03 (MAX-T)=   1.414 
ITERATION  14 : L=   60.6873139694 DL=  1.90e-03 (MAX-T)=   1.275 
ITERATION  15 : L=   60.6894130037 DL=  2.10e-03 (MAX-T)=   1.004 
ITERATION  16 : L=   60.6908847272 DL=  1.47e-03 (MAX-T)=   0.941 
ITERATION  17 : L=   60.6920304710 DL=  1.15e-03 (MAX-T)=   0.985 
ITERATION  18 : L=   60.6930664785 DL=  1.04e-03 (MAX-T)=   0.873 
ITERATION  19 : L=   60.6940320633 DL=  9.66e-04 (MAX-T)=   0.698 
ITERATION  20 : L=   60.6946028534 DL=  5.71e-04 (MAX-T)=   0.581 
ITERATION  21 : L=   60.6951485075 DL=  5.46e-04 (MAX-T)=   0.582 
ITERATION  22 : L=   60.6954749473 DL=  3.26e-04 (MAX-T)=   0.479 
ITERATION  23 : L=   60.6958118797 DL=  3.37e-04 (MAX-T)=   0.387 
ITERATION  24 : L=   60.6960213368 DL=  2.09e-04 (MAX-T)=   0.301 
ITERATION  25 : L=   60.6961860802 DL=  1.65e-04 (MAX-T)=   0.295 
ITERATION  26 : L=   60.6962925049 DL=  1.06e-04 (MAX-T)=   0.295 
ITERATION  27 : L=   60.6964020502 DL=  1.10e-04 (MAX-T)=   0.229 
ITERATION  28 : L=   60.6964680950 DL=  6.60e-05 (MAX-T)=   0.219 
ITERATION  29 : L=   60.6965315600 DL=  6.35e-05 (MAX-T)=   0.188 
ITERATION  30 : L=   60.6965744855 DL=  4.29e-05 (MAX-T)=   0.136 
ITERATION  31 : L=   60.6965952472 DL=  2.08e-05 (MAX-T)=   0.147 
ITERATION  32 : L=   60.6966241675 DL=  2.89e-05 (MAX-T)=   0.131 
ITERATION  33 : L=   60.6966444239 DL=  2.03e-05 (MAX-T)=   0.087 
ITERATION  34 : L=   60.6966629231 DL=  1.85e-05 (MAX-T)=   0.113 
ITERATION  35 : L=   60.6966752878 DL=  1.24e-05 (MAX-T)=   0.079 
ITERATION  36 : L=   60.6966835836 DL=  8.30e-06 (MAX-T)=   0.068 
ITERATION  37 : L=   60.6966911497 DL=  7.57e-06 (MAX-T)=   0.056 
ITERATION  38 : L=   60.6966965809 DL=  5.43e-06 (MAX-T)=   0.048 
ITERATION  39 : L=   60.6967007029 DL=  4.12e-06 (MAX-T)=   0.048 
ITERATION  40 : L=   60.6967033837 DL=  2.68e-06 (MAX-T)=   0.034 
ITERATION  41 : L=   60.6967055797 DL=  2.20e-06 (MAX-T)=   0.033 
ITERATION  42 : L=   60.6967069972 DL=  1.42e-06 (MAX-T)=   0.027 
ITERATION  43 : L=   60.6967081247 DL=  1.13e-06 (MAX-T)=   0.021 
ITERATION  44 : L=   60.6967090059 DL=  8.81e-07 (MAX-T)=   0.017 
ITERATION  45 : L=   60.6967096755 DL=  6.70e-07 (MAX-T)=   0.016 
ITERATION  46 : L=   60.6967101176 DL=  4.42e-07 (MAX-T)=   0.016 
LOCALIZATION SUM CONVERGED


--------------------------------------------------------------------------------
                    LOCALIZED MOLECULAR ORBITAL COMPOSITIONS
--------------------------------------------------------------------------------

The Mulliken populations for each LMO on each atom are computed
The LMO`s will be ordered according to atom index and type
  (A) Strongly localized MO`s have populations of >=0.950 on one atom
  (B) Two center bond orbitals have populations of >=0.850 on two atoms
  (C) Other MO`s are considered to be `delocalized`

FOUND  -   8 strongly local MO`s
       -   0 two center bond MO`s
       -   0 significantly delocalized MO`s

Rather strongly localized orbitals:
MO  17:   1Ar -   1.002009
MO  16:   1Ar -   1.002007
MO  15:   1Ar -   1.001985
MO  14:   1Ar -   1.002035
MO  13:   0Ar -   1.002028
MO  12:   0Ar -   1.001982
MO  11:   0Ar -   1.001990
MO  10:   0Ar -   1.002035
Localized MO's were stored in: AR2LD_2.8.proc0.loc

Localizing the core orbitals
Localization sum:    70.297209435 
------------------------------------------------------------------------------
                           ORCA ORBITAL LOCALIZATION
------------------------------------------------------------------------------

Input orbitals are from                  ... AR2LD_2.8.proc0.loc
Output orbitals are to                   ... AR2LD_2.8.proc0.loc
Max. number of iterations                ... 128
Localizations seeded randomly            ... on
Convergence tolerance                    ... 2.000e-07
Using relative localization threshhold   ... 1.000e-08
Threshold for strong local MOs           ... 9.500e-01
Threshold for bond MOs                   ... 8.500e-01
Operator                                 ... 0
Orbital range for localization           ... 0 to 9
Localization criterion                   ... FOSTER-BOYS
Doing the dipole integrals     ... o.k.
Entering Jacobi type localization:
Using Cholesky decomposition as initial guess.
Initial value of the localization sum :    69.992885
ITERATION   0 : L=   70.2969407472 DL=  3.04e-01 (MAX-T)=  45.000 
ITERATION   1 : L=   70.2972087808 DL=  2.68e-04 (MAX-T)=   1.809 
ITERATION   2 : L=   70.2972094353 DL=  6.54e-07 (MAX-T)=   0.091 
LOCALIZATION SUM CONVERGED


--------------------------------------------------------------------------------
                    LOCALIZED MOLECULAR ORBITAL COMPOSITIONS
--------------------------------------------------------------------------------

The Mulliken populations for each LMO on each atom are computed
The LMO`s will be ordered according to atom index and type
  (A) Strongly localized MO`s have populations of >=0.950 on one atom
  (B) Two center bond orbitals have populations of >=0.850 on two atoms
  (C) Other MO`s are considered to be `delocalized`

FOUND  -  10 strongly local MO`s
       -   0 two center bond MO`s
       -   0 significantly delocalized MO`s

Rather strongly localized orbitals:
MO   9:   1Ar -   1.000037
MO   8:   1Ar -   1.000037
MO   7:   1Ar -   1.000042
MO   6:   1Ar -   1.000000
MO   5:   1Ar -   1.000017
MO   4:   0Ar -   1.000056
MO   3:   0Ar -   1.000034
MO   2:   0Ar -   1.000020
MO   1:   0Ar -   1.000000
MO   0:   0Ar -   1.000023
Localized MO's were stored in: AR2LD_2.8.proc0.loc

Warning: reference  - re-canonicalizations have been set to INT 1 VIRT 1
Warning: internal orbitals are localized - no re-canonicalization of internal orbitals
Warning: UsePNO is turned on - no re-canonicalization of internal and virtual orbitals
Fock densities were made 
Making Fock matrix and reference energy:

--------------------------
CLOSED-SHELL FOCK OPERATOR
--------------------------

Time needed for Fock operator              ...            0.267 sec
Reference energy                           ...  -1053.588945057

--------------
DLPNO SETTINGS (2015 fully linear scaling implementation)
--------------

TCutMKN:           1.000e-03
TCutPAO:           1.000e-03
TCutPNO:           3.330e-07
TCutPNOSingles:    9.990e-09
TCutEN:            9.700e-01
TCutPAOExt:        1.000e-01
TCutPairs:         1.000e-05
TCutPre:           1.000e-07
TCutOSV:           1.000e-06
TCutDOij:          1.000e-05
TCutDO:            1.000e-02
TCutC:             1.000e-04
TCutCPAO:          1.000e-03
TCutCMO:           1.000e-03
TScaleDOMP2PreScr: 2.000e+00
TScaleMKNMP2PreScr:1.000e+01
TScalePNOMP2PreScr:1.000e+00
PAO overlap thresh 1.000e-08
Using PNOs for Singles Fock computation
Use new domains
Use fully linear algorithm

--------------------------
Mulliken population of the LMOs            ... ok
Performing proximity check                 ... No problems found
Calculating differential overlap integrals ... ok

------------------------
PRESCREENING OF HF PAIRS
------------------------

   .... Finished loop over pairs

                  ============================================
                    20 of   36 PAIRS WERE SKIPPED as HF PAIRS
                  ============================================

Total time spent in skipping HF pairs                 ...     0.000 sec
--------------------------
ELECTRON PAIR PRESCREENING
--------------------------

Dipole-based pair screening          .... used

   TCutDOij = 1.000000e-05
   TCutPre  = 1.000000e-07
   .... Finished loop over pairs
Total time spent in the prescreening                  ...     0.000 sec
sum of pair energies estimated for screened out pairs ...       0.000000000000 Eh
Thresholds for map construction and integral transformation for crude MP2:
   TCutMKN                    ...     1.0e-02
   TCutDO                     ...     2.0e-02
   TCutPairs                  ...     1.0e-05
   TCutPNO_CrudeMP2           ...     3.3e-07
   TCutPNOSingles_CrudeMP2    ...     1.0e-08
--------------------------------
LOCAL RI TRANSFORMATION (IAVPAO)
--------------------------------

Orbital window:      10 to 17
Number of PAOs:      54
Basis functions:     54 (22 shells)
Aux. functions:     184 (56 shells)
Use SHARK:           on
Have SHARK:         yes

Processing maps (0.0 sec)
Average map sizes:
   Aux shells -> MOs               8.0
   Aux shells -> PAOs             54.0
   MOs        -> AO shells        22.0
   PAOs       -> AO shells        22.0

Calculating integrals (0.0 sec, 0.609 MB)
Sorting integrals (0.0 sec, 0.607 MB)
Total time for the integral transformation: 0.0 sec
--------------------------------
INITIAL GUESS AND PNO GENERATION
--------------------------------

Populations of internal orbitals onto Fragments:
  10:      1.002    0.002  assigned to fragment   1
  11:      1.002    0.002  assigned to fragment   1
  12:      1.002    0.002  assigned to fragment   1
  13:      1.002    0.002  assigned to fragment   1
  14:      0.002    1.002  assigned to fragment   2
  15:      0.002    1.002  assigned to fragment   2
  16:      0.002    1.002  assigned to fragment   2
  17:      0.002    1.002  assigned to fragment   2

Summary assignment:
   4 orbitals assigned to fragment   1
   4 orbitals assigned to fragment   2

PNO truncation parameters                   .... 
    PAOOverlapThresh   =        1.000e-08

Pair selection                          .... 
  modified with fragment specific keywords
  Pairs will be selected according to these
  intra(inter)fragment cutoffs
  1 <-> 1
    Intrafragment pairs 1 <-> 1 neglected for CCSD
  1 <-> 2
    TCutPairs          =        1.000e-05
    TCutPNO            =        3.330e-07
    TCutMKN            =        1.000e-02
    TCutDO             =        2.000e-02
    TCutPNOSingles     =        9.990e-09
    TCutMP2Pairs       =        1.000e-06
  2 <-> 2
    Intrafragment pairs 2 <-> 2 neglected for CCSD

Type of local MP2 treatment                 .... semi-local MP2
Strategy for PNO selection                  .... occupation number selection
Pair density normalization                  .... MP2 norm
Spin component scaling                      .... not used

   .... Finished loop over pairs
Making pair pair interaction lists          ... done

                       ===========================
                         16 OF   24 PAIRS ARE KEPT CCSD PAIRS
                          0 OF   24 PAIRS ARE KEPT MP2 PAIRS
                          8 OF   24 PAIRS ARE SKIPPED
                       ===========================

Total time spent in the initial guess                 ...     0.030 sec
SL-MP2 correlation energy (all non-screened pairs)    ...      -0.003413900029 Eh

Initial PNO correlation energy                        ...      -0.003349837287 Eh
sum of pair energies prescreened and skipped MP2 pairs...       0.000000000000 Eh
sum of pair energies of crude MP2 skipped pairs only  ...       0.000000000000 Eh
sum of MP2 pair energies for pairs that were not kept ...       0.000000000000 Eh
sum of PNO error estimates for the kept pairs         ...      -0.000064062743 Eh
                                                          --------------------
sum of all corrections                                         -0.000064062743
Initial total correlation energy                               -0.003413900029
Thresholds for map construction and integral transformation for fine MP2 and CCSD(T) calculation:
   TCutMKN   ...     1.0e-03
   TCutDO    ...     1.0e-02
   TCutPairs ...     1.0e-05
   TCutCMO   ...     1.0e-03
   TCutCPAO  ...     1.0e-03

--------------------------------
LOCAL RI TRANSFORMATION (IAVPAO)
--------------------------------

Orbital window:      10 to 17
Number of PAOs:      54
Basis functions:     54 (22 shells)
Aux. functions:     184 (56 shells)
Use SHARK:           on
Have SHARK:         yes

Processing maps (0.0 sec)
Average map sizes:
   Aux shells -> MOs               8.0
   Aux shells -> PAOs             54.0
   MOs        -> AO shells        22.0
   PAOs       -> AO shells        22.0

Calculating integrals (0.0 sec, 0.609 MB)
Sorting integrals (0.0 sec, 0.607 MB)
Total time for the integral transformation: 0.0 sec
--------------------------------
INITIAL GUESS AND PNO GENERATION
--------------------------------

Populations of internal orbitals onto Fragments:
  10:      1.002    0.002  assigned to fragment   1
  11:      1.002    0.002  assigned to fragment   1
  12:      1.002    0.002  assigned to fragment   1
  13:      1.002    0.002  assigned to fragment   1
  14:      0.002    1.002  assigned to fragment   2
  15:      0.002    1.002  assigned to fragment   2
  16:      0.002    1.002  assigned to fragment   2
  17:      0.002    1.002  assigned to fragment   2

Summary assignment:
   4 orbitals assigned to fragment   1
   4 orbitals assigned to fragment   2

PNO truncation parameters                   .... 
    PAOOverlapThresh   =        1.000e-08

Pair selection                          .... 
  modified with fragment specific keywords
  Pairs will be selected according to these
  intra(inter)fragment cutoffs
  1 <-> 1
    Intrafragment pairs 1 <-> 1 neglected for CCSD
  1 <-> 2
    TCutPairs          =        1.000e-05
    TCutPNO            =        3.330e-07
    TCutMKN            =        1.000e-03
    TCutDO             =        1.000e-02
    TCutPNOSingles     =        9.990e-09
    TCutMP2Pairs       =        1.000e-06
  2 <-> 2
    Intrafragment pairs 2 <-> 2 neglected for CCSD

Type of local MP2 treatment                 .... semi-local MP2
Strategy for PNO selection                  .... occupation number selection
Pair density normalization                  .... MP2 norm
Spin component scaling                      .... not used

   .... Finished loop over pairs

 PNO Occupation Number Statistics: 
  | Av. % of trace(Dij) retained        ...  99.000304845470
  | sigma^2 in % of trace(Dij) retained ...   5.00e-02
  | Av. % of trace(Di) retained         ...  99.999848966440
  | sigma^2 in % of trace(Di) retained  ...   1.26e-10
 Distributions of % trace(Dij) recovered:
  |   [90.0, 99.0) ...     3 ( 18.8 % of all pairs)
  |   [99.0, 99.9) ...    13 ( 81.2 % of all pairs)
 Distributions of % trace(Di) recovered :
  |       >= 99.9  ...     8 (100.0 % of all I-pairs )

Making pair pair interaction lists          ... done

                       ===========================
                         16 OF   24 PAIRS ARE KEPT
                       ===========================

Total time spent in the initial guess                 ...     0.037 sec
SL-MP2 correlation energy (all non-screened pairs)    ...      -0.003413900029 Eh

Initial PNO correlation energy                        ...      -0.003349837287 Eh
sum of pair energies estimated for screened out pairs ...       0.000000000000 Eh
sum of MP2 pair energies for pairs that were not kept ...       0.000000000000 Eh
sum of PNO error estimates for the kept pairs         ...      -0.000064062743 Eh
                                                          --------------------
sum of all corrections                                         -0.000064062743
Initial total correlation energy                               -0.003413900029
Thresholds for map construction and integral transformation for fine MP2 and CCSD(T) calculation:
   TCutMKN   ...     1.0e-03
   TCutDO    ...     1.0e-02
   TCutPairs ...     1.0e-05
   TCutCMO   ...     1.0e-03
   TCutCPAO  ...     1.0e-03

Time for aux screen maps:            0.000
Time for maps after fine MP2:            0.000
-----------------------------
LOCAL RI TRANSFORMATION (IJV)
-----------------------------

Orbital window:      10 to 17
Basis functions:     54 (22 shells)
Aux. functions:     184 (56 shells)
Use SHARK:           on

Processing maps (0.0 sec)
Average map sizes:
   Aux shells -> MOs(i)            8.0
   Aux shells -> MOs(j)            8.0
   MOs        -> AO shells        22.0

Calculating integrals NOTE: Switching SHARK to General Contraction for MDCI
      If that is not desired please turn off the PGCFlag in the input (%shark PGCFlag 0 end)
(0.2 sec, 0.092 MB)
Sorting integrals (0.0 sec, 0.090 MB)
Total time for the integral transformation: 0.2 sec
--------------------------------
LOCAL RI TRANSFORMATION (VABPAO)
--------------------------------

Number of PAOs:      54
Basis functions:     54 (22 shells)
Aux. functions:     184 (56 shells)
Use SHARK:           on

Processing maps (0.0 sec)
Average map sizes:
   Aux shells -> PAOs             54.0
   PAOs       -> AO shells        22.0

Calculating integrals NOTE: Switching SHARK to General Contraction for MDCI
      If that is not desired please turn off the PGCFlag in the input (%shark PGCFlag 0 end)
(0.3 sec, 4.096 MB)
Finished


-------------------------------------
Pair Pair Term precalculation with     
RI-(ij|mn) and (im|jn) transformation  
ON THE FLY                             
-------------------------------------

   IBatch   1 (of   1)              ... done (    0.000 sec)
Total EXT                           ...           0.000 sec

IAVPA Available = YES
VABPAO Available= YES
IJV Available   = YES
IJK Available   = NO
PNO3i Available = YES
PNO3j Available = YES
PNO4 Available  = YES
---------------------
RI-PNO TRANSFORMATION
---------------------

Total Number of PNOs                   ...   187
Average number of PNOs per pair        ...    11
Maximal number of PNOs per pair        ...    13
   #pairs with  1 -  5 PNOs   :    0
   #pairs with  6 - 10 PNOs   :    3
   #pairs with 11 - 15 PNOs   :   13
   #pairs with 16 - 20 PNOs   :    0
   #pairs with 21 - 25 PNOs   :    0
   #pairs with 26 - 30 PNOs   :    0
   #pairs with 31 - 35 PNOs   :    0
   #pairs with 36 - 40 PNOs   :    0
   #pairs with 41 - 45 PNOs   :    0
   #pairs with 46 - 50 PNOs   :    0

Generation of (ij|ab)[P] integrals            ... on
Generation of (ia|bc)[P],(ja|bc)[P] integrals ... on
Storage of 3 and 4 external integrals         ... on
Generation of ALL (ka|bc)[P] integrals        ... on
Keep RI integrals in memory                   ... off

Ibatch:  1 (of  1)
Starting 2-4 index PNO integral generation ... done

Timings:
Total PNO integral transformation time     ...          0.026 sec
Size of the 3-external file                ...         0 MB
Size of the 4-external file                ...         0 MB
Size of the IKJL file                      ...         0 MB
Size of the all 3-external file            ...         0 MB
Size of the 1-external file                ...         0 MB

Making pair/pair overlap matrices          ... done (    0.005 sec)
Size of the pair overlap file              ... 0 MB
Redoing the guess amplitudes               ... done (    0.000 sec)

-------------------------
FINAL STARTUP INFORMATION
-------------------------

E(0)                                       ...  -1053.588945057
E(SL-MP2)                                  ...     -0.003413900
E(SL-MP2) including corrections            ...     -0.003413900
Initial E(tot)                             ...  -1053.592358957
<T|T>                                      ...      0.001218622
Number of pairs included                   ... 16
Total number of pairs                      ... 36

------------------------------------------------
                  RHF COUPLED CLUSTER ITERATIONS
------------------------------------------------

Number of PNO amplitudes to be optimized   ...         2197
Number of non-PNO amplitudes               ...        20736
Untruncated number of regular amplitudes   ...        46656

Iter       E(tot)           E(Corr)          Delta-E          Residual     Time
  0  -1053.592358767     -0.003349648      0.000064252      0.000794081    0.02
                           *** Turning on DIIS ***
  1  -1053.592389528     -0.003380408     -0.000030761      0.000268766    0.01
  2  -1053.592418203     -0.003409083     -0.000028675      0.000035365    0.01
  3  -1053.592422315     -0.003413196     -0.000004113      0.000009245    0.01
  4  -1053.592422561     -0.003413442     -0.000000246      0.000002073    0.01
  5  -1053.592422534     -0.003413415      0.000000027      0.000000430    0.01
               --- The Coupled-Cluster iterations have converged ---

----------------------
COUPLED CLUSTER ENERGY
----------------------

E(0)                                       ...  -1053.588945057
E(CORR)(strong-pairs)                      ...     -0.003413415
E(CORR)(weak-pairs)                        ...     -0.000064063
E(CORR)(corrected)                         ...     -0.003477477
E(TOT)                                     ...  -1053.592422534
Singles Norm <S|S>**1/2                    ...      0.001933815  
T1 diagnostic                              ...      0.000483454  

------------------
LARGEST AMPLITUDES
------------------
  14-> 18  10-> 18       0.001973
  16-> 19  13-> 19       0.001877
  17-> 19  12-> 19       0.001869
  15-> 19  11-> 19       0.001866
  14-> 18  10-> 21       0.001641
  14-> 21  10-> 18       0.001641
  16-> 18  10-> 22       0.001584
  14-> 22  12-> 18       0.001580
  15-> 18  10-> 22       0.001577
  14-> 22  13-> 18       0.001577
  14-> 22  11-> 18       0.001572
  17-> 18  10-> 22       0.001568
  16-> 19  13-> 23       0.001500
  17-> 23  12-> 19       0.001496
  16-> 23  13-> 19       0.001492
  15-> 19  11-> 23       0.001490


 ===========================================================
         LOCAL ENERGY DECOMPOSITION FOR DLPNO-CC METHODS
 ===========================================================

Maximum Iterations for the Localization .. 600
Tolerance for the Localization          ..  1.00e-06
Number of fragments = 2
Fragment  1:  0
Fragment  2:  1

Populations of internal orbitals onto Fragments:
   0:      1.000    0.000  assigned to fragment   1
   1:      1.000    0.000  assigned to fragment   1
   2:      1.000    0.000  assigned to fragment   1
   3:      1.000    0.000  assigned to fragment   1
   4:      1.000    0.000  assigned to fragment   1
   5:      0.000    1.000  assigned to fragment   2
   6:      0.000    1.000  assigned to fragment   2
   7:      0.000    1.000  assigned to fragment   2
   8:      0.000    1.000  assigned to fragment   2
   9:      0.000    1.000  assigned to fragment   2
  10:      1.002    0.002  assigned to fragment   1
  11:      1.002    0.002  assigned to fragment   1
  12:      1.002    0.002  assigned to fragment   1
  13:      1.002    0.002  assigned to fragment   1
  14:      0.002    1.002  assigned to fragment   2
  15:      0.002    1.002  assigned to fragment   2
  16:      0.002    1.002  assigned to fragment   2
  17:      0.002    1.002  assigned to fragment   2

Summary assignment:
   9 orbitals assigned to fragment   1
   9 orbitals assigned to fragment   2


--------------------------------
CORRELATION ENERGY DECOMPOSITION
--------------------------------


--------------------------------------------------
INTER- vs INTRA-FRAGMENT CORRELATION ENERGIES (Eh)
--------------------------------------------------

                                   Fragment   1            Fragment   2            
                         ----------------------  ----------------------  
Intra strong pairs               0.000000000000         0.000000000000  sum=        0.000000000000
Intra weak pairs                 0.000000000000         0.000000000000  sum=        0.000000000000
Singles contribution            -0.000000000199        -0.000000000199  sum=       -0.000000000398
                         ----------------------  ----------------------  
                                -0.000000000199        -0.000000000199  sum=       -0.000000000398


Interaction correlation for Fragments   2 and   1:
--------------------------------------------------
Inter strong pairs               -0.003413414347 (   -2.142 kcal/mol)
Inter weak pairs                 -0.000064062743 (   -0.040 kcal/mol)
                          ----------------------
Total interaction                -0.003477477089 (   -2.182 kcal/mol)



Sum of INTRA-fragment correlation energies  =        -0.000000000398
Sum of INTER-fragment correlation energies  =        -0.003477477089
                                              ---------------------
Total correlation energy                    =        -0.003477477487

---------------------------------------------
DECOMPOSITION OF CCSD STRONG PAIRS INTO      
    DOUBLE EXCITATION TYPES (Eh)             
---------------------------------------------

Foster-Boys localization is used for localizing PNOs

Intra fragment contributions: 
INTRA Fragment 1                        0.000000000 
INTRA Fragment 2                        0.000000000 

Charge transfer contributions: 
Charge Transfer 1 to 2                 -0.000342898 
Charge Transfer 2 to 1                 -0.000365108 

Dispersion contributions: 
Dispersion  2,1                        -0.002705408 

Singles contributions:                   
Singles energy                         -0.000000000 

#Time for LED analysis ..       0.0 (sec)



--------------------------------------------------------------------------------
                                    TIMINGS
--------------------------------------------------------------------------------


Total execution time                   ...        1.556 sec

Localization of occupied MO's          ...        0.078 sec (  5.0%)
Fock Matrix Formation                  ...        0.267 sec ( 17.2%)
Global overlap, Fock, MKN matrices     ...        0.120 sec (  7.7%)
Differential overlap integrals         ...        0.100 sec (  6.4%)
Organizing maps                        ...        0.001 sec (  0.1%)
RI 3-index integral generations        ...        0.571 sec ( 36.7%)
RI-PNO integral transformation         ...        0.034 sec (  2.2%)
Initial Guess                          ...        0.070 sec (  4.5%)
DIIS Solver                            ...        0.002 sec (  0.1%)
State Vector Update                    ...        0.000 sec (  0.0%)
Sigma-vector construction              ...        0.082 sec (  5.3%)
  <D|H|D>(0-ext)                       ...        0.008 sec (  9.5% of sigma)
  <D|H|D>(4-ext)                       ...        0.005 sec (  5.7% of sigma)
  <D|H|D>(4-ext-corr)                  ...        0.013 sec ( 15.7% of sigma)
  CCSD doubles correction              ...        0.002 sec (  2.2% of sigma)
  <S|H|S>                              ...        0.011 sec ( 13.4% of sigma)
  <S|H|D>(1-ext)                       ...        0.006 sec (  7.3% of sigma)
  <S|H|D>(3-ext)                       ...        0.002 sec (  2.0% of sigma)
  Fock-dressing                        ...        0.025 sec ( 30.8% of sigma)
  Singles amplitudes                   ...        0.002 sec (  1.8% of sigma)
  (ik|jl)-dressing                     ...        0.005 sec (  6.1% of sigma)
Local Energy Decomposition             ...        0.007 sec (  0.5% of ALL)


Maximum memory used throughout the entire MDCI-calculation: 50.6 MB
----------------------------   ----------------
Inter-fragment dispersion       -0.002769471
----------------------------   ----------------


-------------------------   --------------------
FINAL SINGLE POINT ENERGY     -1053.591714527565 
-------------------------   --------------------


------------------------------------------------------------------------------
                              ORCA PROPERTY CALCULATIONS
------------------------------------------------------------------------------

GBWName                                 ... AR2LD_2.8.gbw
Number of atoms                         ...      2
Number of basis functions               ...    100
Max core memory                         ...   1024 MB

Electric properties:
Dipole moment                           ... YES
Quadrupole moment                       ...  NO
Static polarizability (Dipole/Dipole)   ...  NO
Static polarizability (Dipole/Quad.)    ...  NO
Static polarizability (Quad./Quad.)     ...  NO
Static polarizability (Velocity)        ...  NO

Atomic electric properties:
Dipole moment                           ...  NO
Quadrupole moment                       ...  NO
Static polarizability                   ...  NO

Choice of electric origin               ... Center of mass
Position of electric origin             ...     2.645617     0.000000     0.000000

General magnetic properties:
Magnetizability                         ...  NO

EPR properties:
g-Tensor (aka g-matrix)                 ...  NO
Zero-Field splitting spin-orbit         ...  NO
Zero-field splitting spin-spin          ...  NO
Hyperfine couplings                     ...  NO (   0 nuclei)
Quadrupole couplings                    ...  NO (   0 nuclei)
Contact density                         ...  NO (   0 nuclei)

NMR properties:
Chemical shifts                         ...  NO (   0 nuclei)
Spin-rotation constants                 ...  NO (   0 nuclei)
Spin-spin couplings                     ...  NO (   0 nuclei,    0 pairs)

Choice of magnetic origin               ... GIAO
Position of magnetic origin             ...     0.000000     0.000000     0.000000

Properties with geometric perturbations:
SCF Hessian                             ...  NO
IR spectrum                             ...  NO
VCD spectrum                            ...  NO
X-ray spectroscopy properties:
SCF XES/XAS/RIXS spectra                ...  NO


-------------
DIPOLE MOMENT
-------------

Method             : SCF
Type of density    : Electron Density
Multiplicity       :   1
Irrep              :   0
Energy             : -1053.5889450566544383 Eh
Relativity type    : 
Basis              : AO
                                X                 Y                 Z
Electronic contribution:     -0.000000000       0.000000000      -0.000000000
Nuclear contribution   :      0.000000000       0.000000000       0.000000000
                        -----------------------------------------
Total Dipole Moment    :     -0.000000000       0.000000000      -0.000000000
                        -----------------------------------------
Magnitude (a.u.)       :      0.000000000
Magnitude (Debye)      :      0.000000000



--------------------
Rotational spectrum 
--------------------
 
Rotational constants in cm-1:             0.000000             0.107650             0.107650 
Rotational constants in MHz :             0.000000          3227.278879          3227.278879 

Dipole components along the rotational axes: 
x,y,z [a.u.] :    -0.000000     0.000000    -0.000000 
x,y,z [Debye]:    -0.000000     0.000000    -0.000000 

 

Dipole moment calculation done in   0.0 sec 

Maximum memory used throughout the entire PROP-calculation: 6.7 MB

--------------------------------
SUGGESTED CITATIONS FOR THIS RUN
--------------------------------

Below you find a list of papers that are relevant to this ORCA run
We neither can nor want to force you to cite these papers, but we appreciate if you do
You receive ORCA, which is the product of decades of hard work by many enthusiastic individuals, for free
The only thing we kindly ask in return is that you cite our papers,
We deeply appreciate it, if you show your appreciation for ORCA by not just citing the generic ORCA reference.

Please note that relegating all ORCA citations to the supporting information does *not* help us.
SI sections are not indexed - citations you put there will not count into any citation statistics
But we need these citations in order to attract the funding resources that allow us to do what we are doing

Therefore, if you are a happy ORCA user, please consider citing a few of the papers listed below in the main body of your paper

In addition to the list printed below, the program has created the file AR2LD_2.8.bibtex that contains the list in bibtex format
You can import this file easily into all common literature databanks and citation aid programs


List of essential papers. We consider these as the minimum necessary citations

  1. Neese,F.
     Software update: the ORCA program system, version 5.0
     WIRES Comput. Molec. Sci., 2022 12(1)e1606
     doi.org/10.1002/wcms.1606

List of papers to cite with high priority. The work reported in these papers was absolutely
necessary for this run to complete.
Our perspective: the developers of density functionals and basis sets usually get cited in chemistry papers
Good! But without the algorithms to do something with them, the functionals or basis sets would not do anything.
Hence, in our opinion, the algorithm design and method developments papers are equally worthy of getting cited

  1. Neese,F.; Hansen,A.; Liakos,D.G.
     Efficient and accurate approximations to the local coupled cluster singles doubles method using a truncated pair natural orbital basis
     J. Chem. Phys., 2009 131 064103
     doi.org/10.1063/1.3173827
  2. Neese,F.; Wennmohs,F.; Hansen,A.
     Efficient and accurate local approximations to coupled-electron pair approaches: An attempt to revive the pair natural orbital method
     J. Chem. Phys., 2009 130 114108
     doi.org/10.1063/1.3086717
  3. Riplinger,C.; Neese,F.
     An efficient and near linear scaling pair natural orbital based local coupled cluster method
     J. Chem. Phys., 2013 138(3)Art. No. 034106
     doi.org/10.1063/1.4773581
  4. Datta,D.; Kossmann,S.; Neese,F.
     Analytic energy derivatives for the calculation of the first-order molecular properties using the domain-based local pair-natural orbital coupled-cluster theory
     J. Chem. Phys., 2016 145 
     doi.org/10.1063/1.4962369
  5. Riplinger,C.; Pinski,P.; Becker,U.; Valeev,E.F.; Neese,F.
     Sparse maps-A systematic infrastructure for reduced-scaling electronic structure methods. II. Linear scaling domain based pair natural orbital coupled cluster theory
     J. Chem. Phys., 2016 144 
     doi.org/10.1063/1.4939030
  6. Schneider,W.B.; Bistoni,G.; Sparta,M.; Saitow,M.; Riplinger,C.; Auer,A.A.; Neese,F.
     Decomposition of Intermolecular Interaction Energies within the Local Pair Natural Orbital Coupled Cluster Framework
     J. Theo. Comp. Chem., 2016 12 4778-4792
     doi.org/10.1021/acs.jctc.6b00523
  7. Bistoni,G.; Riplinger,C.; Minenkov,Y.; Cavallo,L.; Auer,A.A.; Neese,F.
     Treating Subvalence Correlation Effects in Domain Based Pair Natural Orbital Coupled Cluster Calculations: An Out-of-the-Box Approach
     J. Theo. Comp. Chem., 2017 13 3220-3227
     doi.org/10.1021/acs.jctc.7b00352
  8. Altun,A.; Neese,F.; Bistoni,G.
     HFLD: A Nonempirical London Dispersion-Corrected Hartree-Fock Method for the Quantification and Analysis of Noncovalent Interaction Energies of Large Molecular Systems
     J. Chem. Theory Comput., 2019 15 5894-5907
     doi.org/10.1021/acs.jctc.9b00425
  9. Neese,F.
     The SHARK Integral Generation and Digestion System
     J. Comp. Chem., 2022  1-16
     doi.org/10.1002/jcc.26942
 10. Altun,A.; Neese,F.; Bistoni,G.
     Open-Shell Variant of the London Dispersion-Corrected Hartree–Fock Method (HFLD) for the Quantification and Analysis of Noncovalent Interaction Energies
     J. Chem. Theory Comput., 2022 XX XXXX-XXXX
     doi.org/10.1021/acs.jctc.1c01295

List of suggested additional citations. These are papers that are important in the 'surrounding' of 
of this run, or papers that preceded the highly important papers. If you like your results we are grateful for a citation.

  1. Neese,F.
     The ORCA program system
     WIRES Comput. Molec. Sci., 2012 2(1)73-78
     doi.org/10.1002/wcms.81
  2. Neese,F.
     Software update: the ORCA program system, version 4.0
     WIRES Comput. Molec. Sci., 2018 8(1)1-6
     doi.org/10.1002/wcms.1327
  3. Neese,F.; Wennmohs,F.; Becker,U.; Riplinger,C.
     The ORCA quantum chemistry program package
     J. Chem. Phys., 2020 152 Art. No. L224108
     doi.org/10.1063/5.0004608
  4. Bistoni,G.
     Finding chemical concepts in the Hilbert space: Coupled cluster analyses of noncovalent interactions
     WIRES Comput. Molec. Sci., 2020 10(3)e1442
     doi.org/10.1002/wcms.1442

List of optional additional citations

  1. Neese,F.
     Approximate second-order SCF convergence for spin unrestricted wavefunctions
     Chem. Phys. Lett., 2000 325(1-3)93-98
     doi.org/10.1016/s0009-2614(00)00662-x

Timings for individual modules:

Sum of individual times          ...        4.299 sec (=   0.072 min)
Startup calculation              ...        0.910 sec (=   0.015 min)  21.2 %
SCF iterations                   ...        1.623 sec (=   0.027 min)  37.7 %
Property integrals               ...        0.077 sec (=   0.001 min)   1.8 %
Property calculations            ...        0.100 sec (=   0.002 min)   2.3 %
MDCI module                      ...        1.589 sec (=   0.026 min)  37.0 %
                             ****ORCA TERMINATED NORMALLY****
TOTAL RUN TIME: 0 days 0 hours 0 minutes 4 seconds 412 msec
