
                                 *****************
                                 * O   R   C   A *
                                 *****************

                                            #,                                       
                                            ###                                      
                                            ####                                     
                                            #####                                    
                                            ######                                   
                                           ########,                                 
                                     ,,################,,,,,                         
                               ,,#################################,,                 
                          ,,##########################################,,             
                       ,#########################################, ''#####,          
                    ,#############################################,,   '####,        
                  ,##################################################,,,,####,       
                ,###########''''           ''''###############################       
              ,#####''   ,,,,##########,,,,          '''####'''          '####       
            ,##' ,,,,###########################,,,                        '##       
           ' ,,###''''                  '''############,,,                           
         ,,##''                                '''############,,,,        ,,,,,,###''
      ,#''                                            '''#######################'''  
     '                                                          ''''####''''         
             ,#######,   #######,   ,#######,      ##                                
            ,#'     '#,  ##    ##  ,#'     '#,    #''#        ,####,   ,####,        
            ##       ##  ##   ,#'  ##            #'  '#       #'       #'  '#        
            ##       ##  #######   ##           ,######,      #####,   #    #        
            '#,     ,#'  ##    ##  '#,     ,#' ,#      #,     #,   #   #,  ,#        
             '#######'   ##     ##  '#######'  #'      '#     '####' # '####'        



                #########################################################
                #                        -***-                          #
                #          Department of theory and spectroscopy        #
                #                                                       #
                #                      Frank Neese                      #
                #                                                       #
                #     Directorship, Architecture, Infrastructure        #
                #                    SHARK, DRIVERS                     #
                #        Core code/Algorithms in most modules           #
                #                                                       #
                #        Max Planck Institute fuer Kohlenforschung      #
                #                Kaiser Wilhelm Platz 1                 #
                #                 D-45470 Muelheim/Ruhr                 #
                #                      Germany                          #
                #                                                       #
                #                  All rights reserved                  #
                #                        -***-                          #
                #########################################################


                         Program Version 6.0.0  -   RELEASE  -


 With contributions from (in alphabetic order):
   Daniel Aravena         : Magnetic Suceptibility
   Michael Atanasov       : Ab Initio Ligand Field Theory (pilot matlab implementation)
   Alexander A. Auer      : GIAO ZORA, VPT2 properties, NMR spectrum
   Ute Becker             : All parallelization in ORCA, NUMFREQ, NUMCALC
   Giovanni Bistoni       : ED, misc. LED, open-shell LED, HFLD
   Martin Brehm           : Molecular dynamics
   Dmytro Bykov           : pre 5.0 version of the SCF Hessian
   Marcos Casanova-Páez   : Triplet and SCS-CIS(D). UHF-(DLPNO)-IP/EA/STEOM-CCSD. UHF-CVS-IP/STEOM-CCSD
   Vijay G. Chilkuri      : MRCI spin determinant printing, contributions to CSF-ICE
   Pauline Colinet        : FMM embedding
   Dipayan Datta          : RHF DLPNO-CCSD density
   Achintya Kumar Dutta   : EOM-CC, STEOM-CC
   Nicolas Foglia         : Exact transition moments, OPA infrastructure, MCD improvements
   Dmitry Ganyushin       : Spin-Orbit,Spin-Spin,Magnetic field MRCI
   Miquel Garcia          : C-PCM and meta-GGA Hessian, CCSD/C-PCM, Gaussian charge scheme
   Tiago L. C. Gouveia    : GS-ROHF, GS-ROCIS
   Yang Guo               : DLPNO-NEVPT2, F12-NEVPT2, CIM, IAO-localization
   Andreas Hansen         : Spin unrestricted coupled pair/coupled cluster methods
   Ingolf Harden          : AUTO-CI MPn and infrastructure 
   Benjamin Helmich-Paris : MC-RPA, TRAH-(SCF,CASSCF), AVAS, COSX integrals, SCF dyn. polar.
   Lee Huntington         : MR-EOM, pCC
   Robert Izsak           : Overlap fitted RIJCOSX, COSX-SCS-MP3, EOM
   Riya Kayal             : Wick's Theorem for AUTO-CI, AUTO-CI UHF-CCSDT
   Emily Kempfer          : AUTO-CI, RHF CISDT and CCSDT
   Christian Kollmar      : KDIIS, OOCD, Brueckner-CCSD(T), CCSD density, CASPT2, CASPT2-K, improved NEVPT2
   Axel Koslowski         : Symmetry handling
   Simone Kossmann        : Meta GGA functionals, TD-DFT gradient, OOMP2, (MP2 Hessian; deprecated post 5.0)
   Lucas Lang             : DCDCAS
   Marvin Lechner         : AUTO-CI (C++ implementation), FIC-MRCC
   Spencer Leger          : CASSCF response
   Dagmar Lenk            : GEPOL surface, SMD, ORCA-2-JSON
   Dimitrios Liakos       : Extrapolation schemes; Compound Job, initial MDCI parallelization
   Dimitrios Manganas     : Further ROCIS development; embedding schemes. LFT, Crystal Embedding
   Dimitrios Pantazis     : SARC Basis sets
   Anastasios Papadopoulos: AUTO-CI, single reference methods and gradients
   Taras Petrenko         : pre 6.0 DFT Hessian and TD-DFT gradient, (ASA, deprecated), ECA, 1-Electron XAS/XES, NRVS
   Peter Pinski           : DLPNO-MP2, DLPNO-MP2 Gradient
   Christoph Reimann      : Effective Core Potentials
   Marius Retegan         : Local ZFS, SOC
   Christoph Riplinger    : Optimizer, TS searches, QM/MM, DLPNO-CCSD(T), (RO)-DLPNO pert. Triples
   Michael Roemelt        : Original ROCIS implementation
   Masaaki Saitow         : Open-shell DLPNO-CCSD energy and density
   Barbara Sandhoefer     : DKH picture change effects
   Kantharuban Sivalingam : CASSCF convergence/infrastructure, NEVPT2 and variants, FIC-MRCI
   Bernardo de Souza      : ESD, SOC TD-DFT
   Georgi Stoychev        : AutoAux, RI-MP2 NMR, DLPNO-MP2 response, X2C
   Van Anh Tran           : RI-MP2 g-tensors
   Willem Van den Heuvel  : Paramagnetic NMR
   Zikuan Wang            : NOTCH, Electric field optimization 
   Frank Wennmohs         : Technical directorship and infrastructure
   Hang Xu                : AUTO-CI-Response properties 


 We gratefully acknowledge several colleagues who have allowed us to
 interface, adapt or use parts of their codes:
   Stefan Grimme, W. Hujo, H. Kruse, P. Pracht,  : VdW corrections, initial TS optimization,
                  C. Bannwarth, S. Ehlert,         DFT functionals, gCP, sTDA/sTD-DF
                  L. Wittmann, M. Mueller
   Ed Valeev, F. Pavosevic, A. Kumar             : LibInt (2-el integral package), F12 methods
   Garnet Chan, S. Sharma, J. Yang, R. Olivares  : DMRG
   Ulf Ekstrom                                   : XCFun DFT Library
   Mihaly Kallay                                 : mrcc  (arbitrary order and MRCC methods)
   Frank Weinhold                                : gennbo (NPA and NBO analysis)
   Simon Mueller                                 : openCOSMO-RS
   Christopher J. Cramer and Donald G. Truhlar   : smd solvation model
   Lars Goerigk                                  : TD-DFT with DH, B97 family of functionals
   V. Asgeirsson, H. Jonsson                     : NEB implementation
   FAccTs GmbH                                   : IRC, NEB, NEB-TS, DLPNO-Multilevel, CI-OPT
                                                   MM, QMMM, 2- and 3-layer-ONIOM, Crystal-QMMM,
                                                   LR-CPCM, SF, NACMEs, symmetry and pop. for TD-DFT,
                                                   nearIR, NL-DFT gradient (VV10), updates on ESD,
                                                   ML-optimized integration grids, MBIS, APM,
                                                   GOAT, DOCKER, SOLVATOR, interface openCOSMO-RS
   S Lehtola, MJT Oliveira, MAL Marques          : LibXC Library
   Liviu Ungur et al                             : ANISO software


 Your calculation uses the libint2 library for the computation of 2-el integrals
 For citations please refer to: http://libint.valeyev.net

 Your ORCA version has been built with support for libXC version: 6.2.2
 For citations please refer to: https://libxc.gitlab.io

 This ORCA versions uses:
   CBLAS   interface :  Fast vector & matrix operations
   LAPACKE interface :  Fast linear algebra routines
   SCALAPACK package :  Parallel linear algebra routines
   Shared memory     :  Shared parallel matrices
   BLAS/LAPACK       :  OpenBLAS 0.3.27  USE64BITINT DYNAMIC_ARCH NO_AFFINITY Haswell SINGLE_THREADED
        Core in use  :  Haswell
   Copyright (c) 2011-2014, The OpenBLAS Project


================================================================================

----- Orbital basis set information -----
Your calculation utilizes the basis: aug-cc-pVDZ 
    H, B-Ne : Obtained from the ccRepo (grant-hill.group.shef.ac.uk/ccrepo) Feb. 2017
              R. A. Kendall, T. H. Dunning, Jr., R. J. Harrison, J. Chem. Phys. 96, 6796 (1992)
         He : Obtained from the ccRepo (grant-hill.group.shef.ac.uk/ccrepo) Feb. 2017
              D. E. Woon, T. H. Dunning, Jr., J. Chem. Phys. 100, 2975 (1994)
  Li-Be, Na : Obtained from the ccRepo (grant-hill.group.shef.ac.uk/ccrepo) Feb. 2017
              B. P. Prascher, D. E. Woon, K. A. Peterson, T. H. Dunning, Jr., A. K. Wilson, Theor. Chem. Acc. 128, 69 (2011)
         Mg : Obtained from the Peterson Research Group Website (tyr0.chem.wsu.edu/~kipeters) Feb. 2017
              B. P. Prascher, D. E. Woon, K. A. Peterson, T. H. Dunning, Jr., A. K. Wilson, Theor. Chem. Acc. 128, 69 (2011)
      Al-Ar : Obtained from the ccRepo (grant-hill.group.shef.ac.uk/ccrepo) Feb. 2017
              D. E. Woon, T. H. Dunning, Jr., J. Chem. Phys. 98, 1358 (1993)
      Sc-Zn : Obtained from the ccRepo (grant-hill.group.shef.ac.uk/ccrepo) Feb. 2017
              N. B. Balabanov, K. A. Peterson, J. Chem. Phys. 123, 064107 (2005)
              N. B. Balabanov, K. A. Peterson, J. Chem. Phys. 125, 074110 (2006)
      Ga-Kr : Obtained from the ccRepo (grant-hill.group.shef.ac.uk/ccrepo) Feb. 2017
              A. K. Wilson, D. E. Woon, K. A. Peterson, T. H. Dunning, Jr., J. Chem. Phys. 110, 7667 (1999)

----- AuxC basis set information -----
Your calculation utilizes the auxiliary basis: aug-cc-pVDZ/C 
  H-He, B, Ne, Al-Ar, Ga-Ge, Se-Br : Obtained from the EMSL Basis Set Exchange (bse.pnl.gov) Feb. 2017
                                     F. Weigend, A. Kohn, C. Hattig, J. Chem. Phys. 116, 3175 (2002)
                            Be, Mg : Obtained from the TURBOMOLE 7.0 basis set library
                                     C. Haettig, Phys. Chem. Chem. Phys. 7, 59 (2005)
                               C-F : Obtained from the EMSL Basis Set Exchange (bse.pnl.gov) Feb. 2017
                                     C. Haettig, Phys. Chem. Chem. Phys. 7, 59 (2005)
                                     F. Weigend, A. Kohn, C. Hattig, J. Chem. Phys. 116, 3175 (2002)
                                As : Obtained from the EMSL Basis Set Exchange (bse.pnl.gov) Feb. 2017
                                     C. Haettig, G. Schmitz, J. Kossmann, Phys. Chem. Chem. Phys. 14, 6549 (2012)
                                Kr : Obtained from the TURBOMOLE 7.0 basis set library
                                     F. Weigend, A. Kohn, C. Hattig, J. Chem. Phys. 116, 3175 (2002)
                                     S function revised in Sep. 2009

================================================================================
                                        WARNINGS
                       Please study these warnings very carefully!
================================================================================


WARNING: Post HF methods need fully converged wavefunctions
  ===> : Setting SCFConvForced true
         You can overwrite this default with %scf ConvForced false 


================================================================================
                                       INPUT FILE
================================================================================
NAME = AR2LD_3.0.inp
|  1> # MP2 scan of the potential energy curve for Ar...Ar
|  2>         ! HFLD aug-cc-pvdz aug-cc-pvdz/C verytightscf
|  3>         *xyz 0 1
|  4>         Ar(1)	0.000000000000000	0.000000000000000	0.00000000000000
|  5>         Ar(2)	3.0	0.000000000000000	0.00000000000000
|  6>         **                         ****END OF INPUT****
================================================================================

                       ****************************
                       * Single Point Calculation *
                       ****************************

---------------------------------
CARTESIAN COORDINATES (ANGSTROEM)
---------------------------------
  Ar     0.000000    0.000000    0.000000
  Ar     3.000000    0.000000    0.000000

----------------------------
CARTESIAN COORDINATES (A.U.)
----------------------------
  NO LB      ZA    FRAG     MASS         X           Y           Z
   0 Ar   18.0000    1    39.948    0.000000    0.000000    0.000000
   1 Ar   18.0000    2    39.948    5.669178    0.000000    0.000000

----------------------------------------------
CARTESIAN COORDINATES OF FRAGMENTS (ANGSTROEM)
----------------------------------------------

 FRAGMENT 1 
  Ar    0.000000    0.000000    0.000000

 FRAGMENT 2 
  Ar    3.000000    0.000000    0.000000

--------------------------------
INTERNAL COORDINATES (ANGSTROEM)
--------------------------------
 Ar     0   0   0     0.000000000000     0.00000000     0.00000000
 Ar     1   0   0     3.000000000000     0.00000000     0.00000000

---------------------------
INTERNAL COORDINATES (A.U.)
---------------------------
 Ar     0   0   0     0.000000000000     0.00000000     0.00000000
 Ar     1   0   0     5.669178401764     0.00000000     0.00000000

---------------------
BASIS SET INFORMATION
---------------------
There are 1 groups of distinct atoms

 Group   1 Type Ar  : 35s16p2d contracted to 5s4p2d pattern {11111111/7711/11}

Atom   0Ar   basis set group =>   1
Atom   1Ar   basis set group =>   1
---------------------------------
AUXILIARY/C BASIS SET INFORMATION
---------------------------------
There are 1 groups of distinct atoms

 Group   1 Type Ar  : 10s8p6d4f contracted to 10s8p6d4f pattern {1111111111/11111111/111111/1111}

Atom   0Ar   basis set group =>   1
Atom   1Ar   basis set group =>   1
------------------------------------------------------------------------------
                             ORCA STARTUP CALCULATIONS
------------------------------------------------------------------------------
------------------------------------------------------------------------------
                   ___                                                        
                  /   \      - P O W E R E D   B Y -                         
                 /     \                                                     
                 |  |  |   _    _      __       _____    __    __             
                 |  |  |  | |  | |    /  \     |  _  \  |  |  /  |          
                  \  \/   | |  | |   /    \    | | | |  |  | /  /          
                 / \  \   | |__| |  /  /\  \   | |_| |  |  |/  /          
                |  |  |   |  __  | /  /__\  \  |    /   |      \           
                |  |  |   | |  | | |   __   |  |    \   |  |\   \          
                \     /   | |  | | |  |  |  |  | |\  \  |  | \   \       
                 \___/    |_|  |_| |__|  |__|  |_| \__\ |__|  \__/        
                                                                              
                      - O R C A' S   B I G   F R I E N D -                    
                                      &                                       
                       - I N T E G R A L  F E E D E R -                       
                                                                              
 v1 FN, 2020, v2 2021, v3 2022-2024                                           
------------------------------------------------------------------------------


----------------------
SHARK INTEGRAL PACKAGE
----------------------

Number of atoms                             ...      2
Number of basis functions                   ...    100
Number of shells                            ...     48
Maximum angular momentum                    ...      2
Integral batch strategy                     ... SHARK/LIBINT Hybrid
RI-J (if used) integral strategy            ... SPLIT-RIJ (Revised 2003 algorithm where possible)
Printlevel                                  ...      1
Contraction scheme used                     ... PARTIAL GENERAL contraction
Prescreening option                         ... SCHWARTZ
   Thresh                                   ... 1.000e-12
   Tcut                                     ... 1.000e-14
   Tpresel                                  ... 1.000e-14 
Coulomb Range Separation                    ... NOT USED
Exchange Range Separation                   ... NOT USED
Multipole approximations                    ... NOT USED
Finite Nucleus Model                        ... NOT USED
CABS basis                                  ... NOT available
Auxiliary Coulomb fitting basis             ... NOT available
Auxiliary J/K fitting basis                 ... NOT available
Auxiliary Correlation fitting basis         ... AVAILABLE
   # of basis functions in Aux-C            ...    184
   # of shells in Aux-C                     ...     56
   Maximum angular momentum in Aux-C        ...      3
Auxiliary 'external' fitting basis          ... NOT available

Checking pre-screening integrals            ... done (  0.0 sec) Dimension = 48
Save PGC pre-screening integrals            ... done (  0.0 sec) Dimension = 48
Calculate PGC overlap integrals             ... done (  0.0 sec) Dimension = 22
Calculating pre-screening integrals (ORCA)  ... done (  0.1 sec) Dimension = 22
Check shell pair data                       ... done (  0.0 sec)
Shell pair information
Shell pair cut-off parameter TPreSel        ...   1.0e-14
Total number of shell pairs                 ...      1176
Shell pairs after pre-screening             ...       923
Total number of primitive shell pairs       ...      1176
Primitive shell pairs kept                  ...       923
          la=0 lb=0:    251 shell pairs
          la=1 lb=0:    350 shell pairs
          la=1 lb=1:    136 shell pairs
          la=2 lb=0:    104 shell pairs
          la=2 lb=1:     72 shell pairs
          la=2 lb=2:     10 shell pairs

Calculating one electron integrals          ... done (  0.0 sec)
Calculating RI/C V-Matrix + Cholesky decomp.... done (  0.0 sec)
Calculating Nuclear repulsion               ... done (  0.0 sec) ENN=     57.151138496400 Eh

Diagonalization of the overlap matrix:
Smallest eigenvalue                        ... 2.119e-02
Time for diagonalization                   ...    0.000 sec
Threshold for overlap eigenvalues          ... 1.000e-07
Number of eigenvalues below threshold      ... 0
Time for construction of square roots      ...    0.000 sec
Total time needed                          ...    0.001 sec

-------------------
DFT GRID GENERATION
-------------------

General Integration Accuracy     IntAcc      ... 4.388
Radial Grid Type                 RadialGrid  ... OptM3 with GC (2021)
Angular Grid (max. ang.)         AngularGrid ... 4 (Lebedev-302)
Angular grid pruning method      GridPruning ... 4 (adaptive)
Weight generation scheme         WeightScheme... mBecke (2022)
Basis function cutoff            BFCut       ... 1.0000e-12
Integration weight cutoff        WCut        ... 1.0000e-14
Partially contracted basis set               ... off
Rotationally invariant grid construction     ... off
Angular grids for H and He will be reduced by one unit

Total number of grid points                  ...    14722
Total number of batches                      ...      232
Average number of points per batch           ...       63
Average number of grid points per atom       ...     7361

---------------------
SHARK GRID GENERATION
---------------------

General Integration Accuracy     IntAcc      ... 4.388
Radial Grid Type                 RadialGrid  ... OptM3 with GC (2021)
Angular Grid (max. ang.)         AngularGrid ... 4 (Lebedev-302)
Angular grid pruning method      GridPruning ... 4 (adaptive)
Weight generation scheme         WeightScheme... mBecke (2022)
Basis function cutoff            BFCut       ... 1.0000e-12
Integration weight cutoff        WCut        ... 1.0000e-14
Partially contracted basis set               ... off
Rotationally invariant grid construction     ... off
Angular grids for H and He will be reduced by one unit
Core-polarized basis detected: some atoms will have their core
                               angular grid increased.
Steep s-basis detected: some atoms will have their radial
                        grid points doubled.

Total number of grid points                  ...    38682
Total number of batches                      ...      606
Average number of points per batch           ...       63
Average number of grid points per atom       ...    19341
Initializing property integral containers    ... done (  0.0 sec)

SHARK setup successfully completed in   1.1 seconds

Maximum memory used throughout the entire STARTUP-calculation: 26.3 MB
-------------------------------------------------------------------------------
                                 ORCA GUESS
                   Start orbitals & Density for SCF / CASSCF
-------------------------------------------------------------------------------

------------
SCF SETTINGS
------------
Hamiltonian:
 Ab initio Hamiltonian  Method          .... Hartree-Fock(GTOs)


General Settings:
 Integral files         IntName         .... AR2LD_3.0
 Hartree-Fock type      HFTyp           .... RHF
 Total Charge           Charge          ....    0
 Multiplicity           Mult            ....    1
 Number of Electrons    NEL             ....   36
 Basis Dimension        Dim             ....   54
 Nuclear Repulsion      ENuc            ....     57.1511384964 Eh

Convergence Acceleration:
 AO-DIIS                CNVDIIS         .... on
   Start iteration      DIISMaxIt       ....    12
   Startup error        DIISStart       ....  0.200000
   # of expansion vecs  DIISMaxEq       ....     5
   Bias factor          DIISBfac        ....   1.050
   Max. coefficient     DIISMaxC        ....  10.000
 MO-DIIS                CNVKDIIS        .... off
 Trust-Rad. Augm. Hess. CNVTRAH         .... auto
   Auto Start mean grad. ratio tolernc. ....  1.125000
   Auto Start start iteration           ....    50
   Auto Start num. interpolation iter.  ....    10
   Max. Number of Micro iterations      ....    24
   Max. Number of Macro iterations      .... Maxiter - #DIIS iter
   Number of Davidson start vectors     ....     2
   Converg. threshold    (grad. norm)   ....   2.000e-06
   Grad. Scal. Fac. for Micro threshold ....   0.100
   Minimum threshold for Micro iter.    ....   1.000e-02
   NR start threshold (gradient norm)   ....   1.000e-04
   Initial trust radius                 ....   0.400
   Minimum AH scaling param. (alpha)    ....   1.000
   Maximum AH scaling param. (alpha)    .... 1000.000
   Quad. conv. algorithm                .... NR
   White noise on init. David. guess    .... on
   Maximum white noise                  ....   0.010
   Pseudo random numbers                .... off
   Inactive MOs                         .... canonical
   Orbital update algorithm             .... Taylor
   Preconditioner                       .... Diag
   Full preconditioner red. dimension   ....   250
 SOSCF                  CNVSOSCF        .... on
   Start iteration      SOSCFMaxIt      ....   150
   Startup grad/error   SOSCFStart      ....  0.003300
   Hessian update       SOSCFHessUp     .... L-BFGS
 Level Shifting         CNVShift        .... on
   Level shift para.    LevelShift      ....    0.2500
   Turn off err/grad.   ShiftErr        ....    0.0010
 Zerner damping         CNVZerner       .... off
 Static damping         CNVDamp         .... on
   Fraction old density DampFac         ....    0.7000
   Max. Damping (<1)    DampMax         ....    0.9800
   Min. Damping (>=0)   DampMin         ....    0.0000
   Turn off err/grad.   DampErr         ....    0.1000

SCF Procedure:
 Maximum # iterations   MaxIter         ....   125
 SCF integral mode      SCFMode         .... Direct
   Integral package                     .... SHARK and LIBINT hybrid scheme
 Reset frequency        DirectResetFreq ....    20
 Integral Threshold     Thresh          ....  1.000e-12 Eh
 Primitive CutOff       TCut            ....  1.000e-14 Eh

Convergence Tolerance:
 Convergence Check Mode ConvCheckMode   .... Total+1el-Energy
 Convergence forced     ConvForced      .... 1
 Energy Change          TolE            ....  1.000e-09 Eh
 1-El. energy change                    ....  1.000e-06 Eh
 Orbital Gradient       TolG            ....  2.000e-06
 Orbital Rotation angle TolX            ....  2.000e-06
 DIIS Error             TolErr          ....  1.000e-08

------------------------------
INITIAL GUESS: MODEL POTENTIAL
------------------------------
Loading Hartree-Fock densities                     ... done
Calculating cut-offs                               ... done
Initializing the effective Hamiltonian             ... done
Setting up the integral package (SHARK)            ... done
Starting the Coulomb interaction                   ... done (   0.0 sec)
Making the grid                                    ... done (   0.0 sec)
Mapping shells                                     ... done
Starting the XC term evaluation                    ... done (   0.0 sec)
Transforming the Hamiltonian                       ... done (   0.0 sec)
Diagonalizing the Hamiltonian                      ... done (   0.0 sec)
Back transforming the eigenvectors                 ... done (   0.0 sec)
Now organizing SCF variables                       ... done
                      ------------------
                      INITIAL GUESS DONE (   0.0 sec)
                      ------------------
             **** ENERGY FILE WAS UPDATED (AR2LD_3.0.en.tmp) ****
Finished Guess after   0.1 sec
Maximum memory used throughout the entire GUESS-calculation: 5.3 MB

-------------------------------------------------------------------------------------------
                                      ORCA LEAN-SCF
                              memory conserving SCF solver
-------------------------------------------------------------------------------------------

----------------------------------------D-I-I-S--------------------------------------------
Iteration    Energy (Eh)           Delta-E    RMSDP     MaxDP     DIISErr   Damp  Time(sec)
-------------------------------------------------------------------------------------------
               ***  Starting incremental Fock matrix formation  ***
    1    -1053.5832271053986915     0.00e+00  1.31e-03  1.73e-02  9.14e-02  0.700   0.2
    2    -1053.5867337412257712    -3.51e-03  1.02e-03  1.26e-02  6.55e-02  0.700   0.2
                               ***Turning on AO-DIIS***
    3    -1053.5892842590619694    -2.55e-03  8.13e-04  9.22e-03  4.66e-02  0.700   0.2
    4    -1053.5911191861971474    -1.83e-03  2.00e-03  2.17e-02  3.27e-02  0.000   0.2
                              *** Initializing SOSCF ***
---------------------------------------S-O-S-C-F--------------------------------------
Iteration    Energy (Eh)           Delta-E    RMSDP     MaxDP     MaxGrad    Time(sec)
--------------------------------------------------------------------------------------
    5    -1053.5956016915772580    -4.48e-03  1.01e-04  9.26e-04  1.08e-03     0.2
               *** Restarting incremental Fock matrix formation ***
    6    -1053.5956075904971385    -5.90e-06  4.88e-05  5.29e-04  2.76e-04     0.2
    7    -1053.5956086299665913    -1.04e-06  1.79e-05  1.74e-04  6.82e-05     0.1
    8    -1053.5956086971204968    -6.72e-08  1.02e-06  1.60e-05  8.62e-06     0.1
    9    -1053.5956086974567825    -3.36e-10  1.99e-07  1.96e-06  1.09e-06     0.1
                 **** Energy Check signals convergence ****

               *****************************************************
               *                     SUCCESS                       *
               *           SCF CONVERGED AFTER   9 CYCLES          *
               *****************************************************

             **** ENERGY FILE WAS UPDATED (AR2LD_3.0.en.tmp) ****

----------------
TOTAL SCF ENERGY
----------------

Total Energy       :      -1053.59560869745678 Eh          -28669.79406 eV

Components:
Nuclear Repulsion  :         57.15113849640000 Eh            1555.16154 eV
Electronic Energy  :      -1110.74674719385689 Eh          -30224.95560 eV
One Electron Energy:      -1570.73976216758797 Eh          -42742.00189 eV
Two Electron Energy:        459.99301497373108 Eh           12517.04629 eV

Virial components:
Potential Energy   :      -2107.26287537000781 Eh          -57341.53803 eV
Kinetic Energy     :       1053.66726667255102 Eh           28671.74397 eV
Virial Ratio       :          1.99993199183712

---------------
SCF CONVERGENCE
---------------

  Last Energy change         ...    3.3629e-10  Tolerance :   1.0000e-09
  Last MAX-Density change    ...    1.9596e-06  Tolerance :   1.0000e-08
  Last RMS-Density change    ...    1.9858e-07  Tolerance :   1.0000e-09
  Last DIIS Error            ...    1.0801e-03  Tolerance :   1.0000e-08
  Last Orbital Gradient      ...    1.0889e-06  Tolerance :   2.0000e-06
  Last Orbital Rotation      ...    1.4326e-06  Tolerance :   2.0000e-06


----------------
ORBITAL ENERGIES
----------------

  NO   OCC          E(Eh)            E(eV) 
   0   2.0000    -118.607731     -3227.4804 
   1   2.0000    -118.607730     -3227.4804 
   2   2.0000     -12.320383      -335.2547 
   3   2.0000     -12.320361      -335.2541 
   4   2.0000      -9.568952      -260.3844 
   5   2.0000      -9.568950      -260.3844 
   6   2.0000      -9.568915      -260.3834 
   7   2.0000      -9.568915      -260.3834 
   8   2.0000      -9.568913      -260.3834 
   9   2.0000      -9.568913      -260.3834 
  10   2.0000      -1.283990       -34.9391 
  11   2.0000      -1.273120       -34.6433 
  12   2.0000      -0.621626       -16.9153 
  13   2.0000      -0.596879       -16.2419 
  14   2.0000      -0.596879       -16.2419 
  15   2.0000      -0.585987       -15.9455 
  16   2.0000      -0.585987       -15.9455 
  17   2.0000      -0.562638       -15.3101 
  18   0.0000       0.124460         3.3867 
  19   0.0000       0.141129         3.8403 
  20   0.0000       0.141129         3.8403 
  21   0.0000       0.149144         4.0584 
  22   0.0000       0.177525         4.8307 
  23   0.0000       0.177525         4.8307 
  24   0.0000       0.191529         5.2118 
  25   0.0000       0.299763         8.1570 
  26   0.0000       0.482083        13.1182 
  27   0.0000       0.482083        13.1182 
  28   0.0000       0.504508        13.7284 
*Only the first 10 virtual orbitals were printed.

                    ********************************
                    * MULLIKEN POPULATION ANALYSIS *
                    ********************************

-------------------------
MULLIKEN FRAGMENT CHARGES
-------------------------
 Fragment   0 :   0.000000
 Fragment   1 :  -0.000000
Sum of fragment charges:    0.0000000

---------------------------------
MULLIKEN FRAGMENT OVERLAP CHARGES
---------------------------------
                  0          1    
      0      18.030366  -0.060731
      1      -0.060731  18.030366

-----------------------
MULLIKEN ATOMIC CHARGES
-----------------------
   0 Ar:    0.000000
   1 Ar:   -0.000000
Sum of atomic charges:    0.0000000

--------------------------------
MULLIKEN REDUCED ORBITAL CHARGES
--------------------------------
  0 Ars       :     5.996929  s :     5.996929
      pz      :     3.999831  p :    12.002535
      px      :     4.002872
      py      :     3.999831
      dz2     :     0.000050  d :     0.000536
      dxz     :     0.000169
      dyz     :     0.000000
      dx2y2   :     0.000149
      dxy     :     0.000169

  1 Ars       :     5.996929  s :     5.996929
      pz      :     3.999831  p :    12.002535
      px      :     4.002872
      py      :     3.999831
      dz2     :     0.000050  d :     0.000536
      dxz     :     0.000169
      dyz     :     0.000000
      dx2y2   :     0.000149
      dxy     :     0.000169



                     *******************************
                     * LOEWDIN POPULATION ANALYSIS *
                     *******************************

------------------------
LOEWDIN FRAGMENT CHARGES
------------------------
 Fragment   0 :   0.000000
 Fragment   1 :   0.000000

----------------------------
LOEWDIN FRAGMENT BOND ORDERS
----------------------------
                  0          1    
      0      18.000000   0.194520
      1       0.194520  18.000000

----------------------
LOEWDIN ATOMIC CHARGES
----------------------
   0 Ar:    0.000000
   1 Ar:    0.000000

-------------------------------
LOEWDIN REDUCED ORBITAL CHARGES
-------------------------------
  0 Ars       :     5.981405  s :     5.981405
      pz      :     3.999435  p :    12.007591
      px      :     4.008721
      py      :     3.999435
      dz2     :     0.002469  d :     0.011004
      dxz     :     0.000565
      dyz     :     0.000000
      dx2y2   :     0.007406
      dxy     :     0.000565

  1 Ars       :     5.981405  s :     5.981405
      pz      :     3.999435  p :    12.007591
      px      :     4.008721
      py      :     3.999435
      dz2     :     0.002469  d :     0.011004
      dxz     :     0.000565
      dyz     :     0.000000
      dx2y2   :     0.007406
      dxy     :     0.000565



                      *****************************
                      * MAYER POPULATION ANALYSIS *
                      *****************************

  NA   - Mulliken gross atomic population
  ZA   - Total nuclear charge
  QA   - Mulliken gross atomic charge
  VA   - Mayer's total valence
  BVA  - Mayer's bonded valence
  FA   - Mayer's free valence

  ATOM       NA         ZA         QA         VA         BVA        FA
  0 Ar    18.0000    18.0000     0.0000    -0.0123    -0.0123    -0.0000
  1 Ar    18.0000    18.0000    -0.0000    -0.0123    -0.0123    -0.0000

  Mayer bond orders larger than 0.100000
  => no bond orders to print

-------
TIMINGS
-------

Total SCF time: 0 days 0 hours 0 min 1 sec 

Total time                  ....       1.384 sec
Sum of individual times     ....       1.376 sec  ( 99.4%)

SCF preparation             ....       0.035 sec  (  2.5%)
Fock matrix formation       ....       1.329 sec  ( 96.0%)
  Startup                   ....       0.000 sec  (  0.0% of F)
  Coulomb+Exchange Fock     ....       1.326 sec  ( 99.8% of F)
Diagonalization             ....       0.000 sec  (  0.0%)
Density matrix formation    ....       0.002 sec  (  0.1%)
Total Energy calculation    ....       0.000 sec  (  0.0%)
Population analysis         ....       0.001 sec  (  0.1%)
Orbital Transformation      ....       0.002 sec  (  0.1%)
Orbital Orthonormalization  ....       0.000 sec  (  0.0%)
DIIS solution               ....       0.004 sec  (  0.3%)
SOSCF solution              ....       0.003 sec  (  0.2%)
Finished LeanSCF after   1.4 sec

Maximum memory used throughout the entire LEANSCF-calculation: 7.3 MB

------------------------------------------------------------------------------
                         ORCA PROPERTY INTEGRAL CALCULATIONS
------------------------------------------------------------------------------

GBWName                                   ... AR2LD_3.0.gbw
Number of atoms                           ...      2
Number of basis functions                 ...    100
Max core memory                           ...   1024 MB

Dipole integrals                          ... YES
Quadrupole integrals                      ...  NO
Linear momentum integrals                 ... YES
Angular momentum integrals                ... YES
Higher moments length integrals           ...  NO
Higher moments velocity integrals         ...  NO
Kinetic energy integrals                  ...  NO
GIAO right hand sides                     ...  NO
GIAO dipole derivative integrals          ...  NO
SOC integrals                             ...  NO
EPR diamagnetic integrals (GIAO)          ...  NO
EPR gauge integrals                       ...  NO
Field gradient integrals                  ...  NO (   0 nuclei)
Spin-dipole/Fermi contact integrals       ...  NO (   0 nuclei)
Contact density integrals                 ...  NO (   0 nuclei)
Nucleus-orbit integrals                   ...  NO (   0 nuclei)
Geometric perturbations                   ...  NO (   2 nuclei)

Choice of electric origin   ... Center of mass
Position of electric origin ... (  2.8346,  0.0000,  0.0000) 
Choice of magnetic origin   ... GIAO
Position of magnetic origin ... (  0.0000,  0.0000,  0.0000) 

Calculating integrals                     ... Electric Dipole (Length)     done (  0.0 sec)
Calculating integrals                     ... Linear Momentum              done (  0.0 sec)
Calculating integrals                     ... Angular Momentum  (ElOri)    done (  0.0 sec)

Property integrals calculated in   0.0 sec

Maximum memory used throughout the entire PROPINT-calculation: 5.4 MB


--------------------------------------------------------------------------------
                             ORCA-MATRIX DRIVEN CI
--------------------------------------------------------------------------------


Wavefunction type
-----------------
Correlation treatment                      ...      CCSD     
Single excitations                         ... ON
Orbital optimization                       ... OFF
Calculation of Z vector                    ... OFF
Calculation of Brueckner orbitals          ... OFF
Perturbative triple excitations            ... OFF
Calculation of F12 correction              ... OFF
Frozen core treatment                      ... chemical core (20 el)
Reference Wavefunction                     ... RHF
  Internal Orbitals:    10 ...   17 (  8 MO's/ 16 electrons)
  Virtual  Orbitals:    18 ...   53 ( 36 MO's              )
Number of AO's                             ...     54
Number of electrons                        ...     36
Number of correlated electrons             ...     16

Algorithmic settings
--------------------
Integral transformation                    ... All integrals via the RI transformation
K(C) Formation                             ... RI-DLPNO
   PNO-Integral Storage                    ... ON DISK
   PNO occupation number cut-off           ... 3.330e-07
   Singles PNO occupation number cut-off   ... 9.990e-09
   PNO Mulliken prescreening cut-off       ... 1.000e-03
   Domain cut-off (Mulliken population)    ... 1.000e-03
   PNO Normalization                       ...    1
Maximum number of iterations               ...        50
Convergence tolerance (max. residuum)      ... 1.000e-06
Level shift for amplitude update           ... 2.000e-01
Maximum number of DIIS vectors             ...         7
DIIS turned on at iteration                ...         0
Damping before turning on DIIS             ...     0.500
Damping after turning on DIIS              ...     0.000
Pair specific amplitude update             ... OFF
Natural orbital iterations                 ... OFF
Perturbative natural orbital generation    ... OFF
Printlevel                                 ... 2

Singles Fock matrix elements calculated using PNOs.

Memory handling:
----------------
Maximum memory for working arrays          ...    512 MB
Data storage in matrix containers          ... UNCOMPRESSED
Data type for integral storage             ... DOUBLE
In-Core Storage of quantities:
   Amplitudes+Sigma Vector      ... NO
   J+K operators                ... NO
   DIIS vectors                 ... NO
   3-external integrals         ... NO
   4-external integrals         ... NO

Localization treatment:
-----------------------
Localization option                        ...    2
Localization threshhold                    ... -1.0e+00
Using relative localization threshhold     ... 1.0e-08
Neglect threshold for strong pairs         ... 1.000e-05 Eh
Prescreening threshold for very weak pairs ... 1.000e-07 Eh
Using randomized seed for localization     ... on

Initializing the integral package          ... done
Localizing the valence orbitals
Localizing the valence orbitals
Localization sum:    68.899963132 
------------------------------------------------------------------------------
                           ORCA ORBITAL LOCALIZATION
------------------------------------------------------------------------------

Input orbitals are from                  ... AR2LD_3.0.proc0.gbw
Output orbitals are to                   ... AR2LD_3.0.proc0.loc
Max. number of iterations                ... 128
Localizations seeded randomly            ... on
Convergence tolerance                    ... 2.000e-07
Using relative localization threshhold   ... 1.000e-08
Threshold for strong local MOs           ... 9.500e-01
Threshold for bond MOs                   ... 8.500e-01
Operator                                 ... 0
Orbital range for localization           ... 10 to 17
Localization criterion                   ... FOSTER-BOYS
Doing the dipole integrals     ... o.k.
Entering Jacobi type localization:
Using Cholesky decomposition as initial guess.
Initial value of the localization sum :    64.323123
ITERATION   0 : L=   68.8663142098 DL=  4.54e+00 (MAX-T)=  45.000 
ITERATION   1 : L=   68.8700948813 DL=  3.78e-03 (MAX-T)=   1.303 
ITERATION   2 : L=   68.8725135544 DL=  2.42e-03 (MAX-T)=   0.884 
ITERATION   3 : L=   68.8749463426 DL=  2.43e-03 (MAX-T)=   0.916 
ITERATION   4 : L=   68.8770251041 DL=  2.08e-03 (MAX-T)=   0.982 
ITERATION   5 : L=   68.8798609786 DL=  2.84e-03 (MAX-T)=   0.903 
ITERATION   6 : L=   68.8826029326 DL=  2.74e-03 (MAX-T)=   0.999 
ITERATION   7 : L=   68.8845997022 DL=  2.00e-03 (MAX-T)=   0.874 
ITERATION   8 : L=   68.8857667776 DL=  1.17e-03 (MAX-T)=   0.789 
ITERATION   9 : L=   68.8875051765 DL=  1.74e-03 (MAX-T)=   0.818 
ITERATION  10 : L=   68.8890273042 DL=  1.52e-03 (MAX-T)=   0.739 
ITERATION  11 : L=   68.8902853470 DL=  1.26e-03 (MAX-T)=   0.575 
ITERATION  12 : L=   68.8920065107 DL=  1.72e-03 (MAX-T)=   0.760 
ITERATION  13 : L=   68.8929708881 DL=  9.64e-04 (MAX-T)=   0.632 
ITERATION  14 : L=   68.8940575079 DL=  1.09e-03 (MAX-T)=   0.664 
ITERATION  15 : L=   68.8948232829 DL=  7.66e-04 (MAX-T)=   0.591 
ITERATION  16 : L=   68.8955973684 DL=  7.74e-04 (MAX-T)=   0.542 
ITERATION  17 : L=   68.8962742894 DL=  6.77e-04 (MAX-T)=   0.477 
ITERATION  18 : L=   68.8967301687 DL=  4.56e-04 (MAX-T)=   0.434 
ITERATION  19 : L=   68.8972062046 DL=  4.76e-04 (MAX-T)=   0.429 
ITERATION  20 : L=   68.8976077724 DL=  4.02e-04 (MAX-T)=   0.399 
ITERATION  21 : L=   68.8979556867 DL=  3.48e-04 (MAX-T)=   0.376 
ITERATION  22 : L=   68.8982689267 DL=  3.13e-04 (MAX-T)=   0.436 
ITERATION  23 : L=   68.8985250526 DL=  2.56e-04 (MAX-T)=   0.355 
ITERATION  24 : L=   68.8987630321 DL=  2.38e-04 (MAX-T)=   0.300 
ITERATION  25 : L=   68.8989391003 DL=  1.76e-04 (MAX-T)=   0.264 
ITERATION  26 : L=   68.8991127112 DL=  1.74e-04 (MAX-T)=   0.296 
ITERATION  27 : L=   68.8992261411 DL=  1.13e-04 (MAX-T)=   0.209 
ITERATION  28 : L=   68.8993341947 DL=  1.08e-04 (MAX-T)=   0.234 
ITERATION  29 : L=   68.8994372512 DL=  1.03e-04 (MAX-T)=   0.221 
ITERATION  30 : L=   68.8995033916 DL=  6.61e-05 (MAX-T)=   0.204 
ITERATION  31 : L=   68.8995825102 DL=  7.91e-05 (MAX-T)=   0.189 
ITERATION  32 : L=   68.8996368266 DL=  5.43e-05 (MAX-T)=   0.177 
ITERATION  33 : L=   68.8996933971 DL=  5.66e-05 (MAX-T)=   0.136 
ITERATION  34 : L=   68.8997391347 DL=  4.57e-05 (MAX-T)=   0.156 
ITERATION  35 : L=   68.8997811493 DL=  4.20e-05 (MAX-T)=   0.140 
ITERATION  36 : L=   68.8998097437 DL=  2.86e-05 (MAX-T)=   0.113 
ITERATION  37 : L=   68.8998312507 DL=  2.15e-05 (MAX-T)=   0.096 
ITERATION  38 : L=   68.8998490899 DL=  1.78e-05 (MAX-T)=   0.102 
ITERATION  39 : L=   68.8998648089 DL=  1.57e-05 (MAX-T)=   0.091 
ITERATION  40 : L=   68.8998831573 DL=  1.83e-05 (MAX-T)=   0.093 
ITERATION  41 : L=   68.8998977310 DL=  1.46e-05 (MAX-T)=   0.071 
ITERATION  42 : L=   68.8999101379 DL=  1.24e-05 (MAX-T)=   0.074 
ITERATION  43 : L=   68.8999187942 DL=  8.66e-06 (MAX-T)=   0.059 
ITERATION  44 : L=   68.8999270300 DL=  8.24e-06 (MAX-T)=   0.058 
ITERATION  45 : L=   68.8999312105 DL=  4.18e-06 (MAX-T)=   0.048 
ITERATION  46 : L=   68.8999366654 DL=  5.45e-06 (MAX-T)=   0.049 
ITERATION  47 : L=   68.8999418183 DL=  5.15e-06 (MAX-T)=   0.046 
ITERATION  48 : L=   68.8999447991 DL=  2.98e-06 (MAX-T)=   0.043 
ITERATION  49 : L=   68.8999485955 DL=  3.80e-06 (MAX-T)=   0.038 
ITERATION  50 : L=   68.8999518562 DL=  3.26e-06 (MAX-T)=   0.033 
ITERATION  51 : L=   68.8999540812 DL=  2.23e-06 (MAX-T)=   0.036 
ITERATION  52 : L=   68.8999558965 DL=  1.82e-06 (MAX-T)=   0.032 
ITERATION  53 : L=   68.8999574755 DL=  1.58e-06 (MAX-T)=   0.028 
ITERATION  54 : L=   68.8999589062 DL=  1.43e-06 (MAX-T)=   0.028 
ITERATION  55 : L=   68.8999600576 DL=  1.15e-06 (MAX-T)=   0.023 
ITERATION  56 : L=   68.8999610108 DL=  9.53e-07 (MAX-T)=   0.021 
ITERATION  57 : L=   68.8999618469 DL=  8.36e-07 (MAX-T)=   0.019 
ITERATION  58 : L=   68.8999625592 DL=  7.12e-07 (MAX-T)=   0.018 
ITERATION  59 : L=   68.8999631321 DL=  5.73e-07 (MAX-T)=   0.017 
LOCALIZATION SUM CONVERGED


--------------------------------------------------------------------------------
                    LOCALIZED MOLECULAR ORBITAL COMPOSITIONS
--------------------------------------------------------------------------------

The Mulliken populations for each LMO on each atom are computed
The LMO`s will be ordered according to atom index and type
  (A) Strongly localized MO`s have populations of >=0.950 on one atom
  (B) Two center bond orbitals have populations of >=0.850 on two atoms
  (C) Other MO`s are considered to be `delocalized`

FOUND  -   8 strongly local MO`s
       -   0 two center bond MO`s
       -   0 significantly delocalized MO`s

Rather strongly localized orbitals:
MO  17:   1Ar -   1.000861
MO  16:   1Ar -   1.000815
MO  15:   1Ar -   1.000821
MO  14:   1Ar -   1.001455
MO  13:   0Ar -   1.000850
MO  12:   0Ar -   1.000825
MO  11:   0Ar -   1.000822
MO  10:   0Ar -   1.001455
Localized MO's were stored in: AR2LD_3.0.proc0.loc

Localizing the core orbitals
Localization sum:    80.653291917 
------------------------------------------------------------------------------
                           ORCA ORBITAL LOCALIZATION
------------------------------------------------------------------------------

Input orbitals are from                  ... AR2LD_3.0.proc0.loc
Output orbitals are to                   ... AR2LD_3.0.proc0.loc
Max. number of iterations                ... 128
Localizations seeded randomly            ... on
Convergence tolerance                    ... 2.000e-07
Using relative localization threshhold   ... 1.000e-08
Threshold for strong local MOs           ... 9.500e-01
Threshold for bond MOs                   ... 8.500e-01
Operator                                 ... 0
Orbital range for localization           ... 0 to 9
Localization criterion                   ... FOSTER-BOYS
Doing the dipole integrals     ... o.k.
Entering Jacobi type localization:
Using Cholesky decomposition as initial guess.
Initial value of the localization sum :    80.348983
ITERATION   0 : L=   80.6456470958 DL=  2.97e-01 (MAX-T)=  45.000 
ITERATION   1 : L=   80.6532491962 DL=  7.60e-03 (MAX-T)=  16.302 
ITERATION   2 : L=   80.6532910783 DL=  4.19e-05 (MAX-T)=   1.139 
ITERATION   3 : L=   80.6532919144 DL=  8.36e-07 (MAX-T)=   0.149 
ITERATION   4 : L=   80.6532919175 DL=  3.18e-09 (MAX-T)=   0.009 
LOCALIZATION SUM CONVERGED


--------------------------------------------------------------------------------
                    LOCALIZED MOLECULAR ORBITAL COMPOSITIONS
--------------------------------------------------------------------------------

The Mulliken populations for each LMO on each atom are computed
The LMO`s will be ordered according to atom index and type
  (A) Strongly localized MO`s have populations of >=0.950 on one atom
  (B) Two center bond orbitals have populations of >=0.850 on two atoms
  (C) Other MO`s are considered to be `delocalized`

FOUND  -  10 strongly local MO`s
       -   0 two center bond MO`s
       -   0 significantly delocalized MO`s

Rather strongly localized orbitals:
MO   9:   1Ar -   1.000016
MO   8:   1Ar -   1.000025
MO   7:   1Ar -   1.000040
MO   6:   1Ar -   1.000000
MO   5:   1Ar -   1.000023
MO   4:   0Ar -   1.000000
MO   3:   0Ar -   1.000041
MO   2:   0Ar -   1.000026
MO   1:   0Ar -   1.000019
MO   0:   0Ar -   1.000018
Localized MO's were stored in: AR2LD_3.0.proc0.loc

Warning: reference  - re-canonicalizations have been set to INT 1 VIRT 1
Warning: internal orbitals are localized - no re-canonicalization of internal orbitals
Warning: UsePNO is turned on - no re-canonicalization of internal and virtual orbitals
Fock densities were made 
Making Fock matrix and reference energy:

--------------------------
CLOSED-SHELL FOCK OPERATOR
--------------------------

Time needed for Fock operator              ...            0.255 sec
Reference energy                           ...  -1053.595608697

--------------
DLPNO SETTINGS (2015 fully linear scaling implementation)
--------------

TCutMKN:           1.000e-03
TCutPAO:           1.000e-03
TCutPNO:           3.330e-07
TCutPNOSingles:    9.990e-09
TCutEN:            9.700e-01
TCutPAOExt:        1.000e-01
TCutPairs:         1.000e-05
TCutPre:           1.000e-07
TCutOSV:           1.000e-06
TCutDOij:          1.000e-05
TCutDO:            1.000e-02
TCutC:             1.000e-04
TCutCPAO:          1.000e-03
TCutCMO:           1.000e-03
TScaleDOMP2PreScr: 2.000e+00
TScaleMKNMP2PreScr:1.000e+01
TScalePNOMP2PreScr:1.000e+00
PAO overlap thresh 1.000e-08
Using PNOs for Singles Fock computation
Use new domains
Use fully linear algorithm

--------------------------
Mulliken population of the LMOs            ... ok
Performing proximity check                 ... No problems found
Calculating differential overlap integrals ... ok

------------------------
PRESCREENING OF HF PAIRS
------------------------

   .... Finished loop over pairs

                  ============================================
                    20 of   36 PAIRS WERE SKIPPED as HF PAIRS
                  ============================================

Total time spent in skipping HF pairs                 ...     0.000 sec
--------------------------
ELECTRON PAIR PRESCREENING
--------------------------

Dipole-based pair screening          .... used

   TCutDOij = 1.000000e-05
   TCutPre  = 1.000000e-07
   .... Finished loop over pairs
Total time spent in the prescreening                  ...     0.000 sec
sum of pair energies estimated for screened out pairs ...       0.000000000000 Eh
Thresholds for map construction and integral transformation for crude MP2:
   TCutMKN                    ...     1.0e-02
   TCutDO                     ...     2.0e-02
   TCutPairs                  ...     1.0e-05
   TCutPNO_CrudeMP2           ...     3.3e-07
   TCutPNOSingles_CrudeMP2    ...     1.0e-08
--------------------------------
LOCAL RI TRANSFORMATION (IAVPAO)
--------------------------------

Orbital window:      10 to 17
Number of PAOs:      54
Basis functions:     54 (22 shells)
Aux. functions:     184 (56 shells)
Use SHARK:           on
Have SHARK:         yes

Processing maps (0.0 sec)
Average map sizes:
   Aux shells -> MOs               8.0
   Aux shells -> PAOs             54.0
   MOs        -> AO shells        22.0
   PAOs       -> AO shells        22.0

Calculating integrals (0.0 sec, 0.609 MB)
Sorting integrals (0.0 sec, 0.607 MB)
Total time for the integral transformation: 0.0 sec
--------------------------------
INITIAL GUESS AND PNO GENERATION
--------------------------------

Populations of internal orbitals onto Fragments:
  10:      1.001    0.001  assigned to fragment   1
  11:      1.001    0.001  assigned to fragment   1
  12:      1.001    0.001  assigned to fragment   1
  13:      1.001    0.001  assigned to fragment   1
  14:      0.001    1.001  assigned to fragment   2
  15:      0.001    1.001  assigned to fragment   2
  16:      0.001    1.001  assigned to fragment   2
  17:      0.001    1.001  assigned to fragment   2

Summary assignment:
   4 orbitals assigned to fragment   1
   4 orbitals assigned to fragment   2

PNO truncation parameters                   .... 
    PAOOverlapThresh   =        1.000e-08

Pair selection                          .... 
  modified with fragment specific keywords
  Pairs will be selected according to these
  intra(inter)fragment cutoffs
  1 <-> 1
    Intrafragment pairs 1 <-> 1 neglected for CCSD
  1 <-> 2
    TCutPairs          =        1.000e-05
    TCutPNO            =        3.330e-07
    TCutMKN            =        1.000e-02
    TCutDO             =        2.000e-02
    TCutPNOSingles     =        9.990e-09
    TCutMP2Pairs       =        1.000e-06
  2 <-> 2
    Intrafragment pairs 2 <-> 2 neglected for CCSD

Type of local MP2 treatment                 .... semi-local MP2
Strategy for PNO selection                  .... occupation number selection
Pair density normalization                  .... MP2 norm
Spin component scaling                      .... not used

   .... Finished loop over pairs
Making pair pair interaction lists          ... done

                       ===========================
                         16 OF   24 PAIRS ARE KEPT CCSD PAIRS
                          0 OF   24 PAIRS ARE KEPT MP2 PAIRS
                          8 OF   24 PAIRS ARE SKIPPED
                       ===========================

Total time spent in the initial guess                 ...     0.030 sec
SL-MP2 correlation energy (all non-screened pairs)    ...      -0.002378938115 Eh

Initial PNO correlation energy                        ...      -0.002321179899 Eh
sum of pair energies prescreened and skipped MP2 pairs...       0.000000000000 Eh
sum of pair energies of crude MP2 skipped pairs only  ...       0.000000000000 Eh
sum of MP2 pair energies for pairs that were not kept ...       0.000000000000 Eh
sum of PNO error estimates for the kept pairs         ...      -0.000057758216 Eh
                                                          --------------------
sum of all corrections                                         -0.000057758216
Initial total correlation energy                               -0.002378938115
Thresholds for map construction and integral transformation for fine MP2 and CCSD(T) calculation:
   TCutMKN   ...     1.0e-03
   TCutDO    ...     1.0e-02
   TCutPairs ...     1.0e-05
   TCutCMO   ...     1.0e-03
   TCutCPAO  ...     1.0e-03

--------------------------------
LOCAL RI TRANSFORMATION (IAVPAO)
--------------------------------

Orbital window:      10 to 17
Number of PAOs:      54
Basis functions:     54 (22 shells)
Aux. functions:     184 (56 shells)
Use SHARK:           on
Have SHARK:         yes

Processing maps (0.0 sec)
Average map sizes:
   Aux shells -> MOs               8.0
   Aux shells -> PAOs             54.0
   MOs        -> AO shells        22.0
   PAOs       -> AO shells        22.0

Calculating integrals (0.0 sec, 0.609 MB)
Sorting integrals (0.0 sec, 0.607 MB)
Total time for the integral transformation: 0.0 sec
--------------------------------
INITIAL GUESS AND PNO GENERATION
--------------------------------

Populations of internal orbitals onto Fragments:
  10:      1.001    0.001  assigned to fragment   1
  11:      1.001    0.001  assigned to fragment   1
  12:      1.001    0.001  assigned to fragment   1
  13:      1.001    0.001  assigned to fragment   1
  14:      0.001    1.001  assigned to fragment   2
  15:      0.001    1.001  assigned to fragment   2
  16:      0.001    1.001  assigned to fragment   2
  17:      0.001    1.001  assigned to fragment   2

Summary assignment:
   4 orbitals assigned to fragment   1
   4 orbitals assigned to fragment   2

PNO truncation parameters                   .... 
    PAOOverlapThresh   =        1.000e-08

Pair selection                          .... 
  modified with fragment specific keywords
  Pairs will be selected according to these
  intra(inter)fragment cutoffs
  1 <-> 1
    Intrafragment pairs 1 <-> 1 neglected for CCSD
  1 <-> 2
    TCutPairs          =        1.000e-05
    TCutPNO            =        3.330e-07
    TCutMKN            =        1.000e-03
    TCutDO             =        1.000e-02
    TCutPNOSingles     =        9.990e-09
    TCutMP2Pairs       =        1.000e-06
  2 <-> 2
    Intrafragment pairs 2 <-> 2 neglected for CCSD

Type of local MP2 treatment                 .... semi-local MP2
Strategy for PNO selection                  .... occupation number selection
Pair density normalization                  .... MP2 norm
Spin component scaling                      .... not used

   .... Finished loop over pairs

 PNO Occupation Number Statistics: 
  | Av. % of trace(Dij) retained        ...  98.714675662213
  | sigma^2 in % of trace(Dij) retained ...   2.59e-02
  | Av. % of trace(Di) retained         ...  99.999913179003
  | sigma^2 in % of trace(Di) retained  ...   7.44e-12
 Distributions of % trace(Dij) recovered:
  |   [90.0, 99.0) ...    16 (100.0 % of all pairs)
 Distributions of % trace(Di) recovered :
  |       >= 99.9  ...     8 (100.0 % of all I-pairs )

Making pair pair interaction lists          ... done

                       ===========================
                         16 OF   24 PAIRS ARE KEPT
                       ===========================

Total time spent in the initial guess                 ...     0.033 sec
SL-MP2 correlation energy (all non-screened pairs)    ...      -0.002378938115 Eh

Initial PNO correlation energy                        ...      -0.002321179899 Eh
sum of pair energies estimated for screened out pairs ...       0.000000000000 Eh
sum of MP2 pair energies for pairs that were not kept ...       0.000000000000 Eh
sum of PNO error estimates for the kept pairs         ...      -0.000057758216 Eh
                                                          --------------------
sum of all corrections                                         -0.000057758216
Initial total correlation energy                               -0.002378938115
Thresholds for map construction and integral transformation for fine MP2 and CCSD(T) calculation:
   TCutMKN   ...     1.0e-03
   TCutDO    ...     1.0e-02
   TCutPairs ...     1.0e-05
   TCutCMO   ...     1.0e-03
   TCutCPAO  ...     1.0e-03

Time for aux screen maps:            0.000
Time for maps after fine MP2:            0.000
-----------------------------
LOCAL RI TRANSFORMATION (IJV)
-----------------------------

Orbital window:      10 to 17
Basis functions:     54 (22 shells)
Aux. functions:     184 (56 shells)
Use SHARK:           on

Processing maps (0.0 sec)
Average map sizes:
   Aux shells -> MOs(i)            8.0
   Aux shells -> MOs(j)            8.0
   MOs        -> AO shells        22.0

Calculating integrals NOTE: Switching SHARK to General Contraction for MDCI
      If that is not desired please turn off the PGCFlag in the input (%shark PGCFlag 0 end)
(0.3 sec, 0.092 MB)
Sorting integrals (0.0 sec, 0.090 MB)
Total time for the integral transformation: 0.3 sec
--------------------------------
LOCAL RI TRANSFORMATION (VABPAO)
--------------------------------

Number of PAOs:      54
Basis functions:     54 (22 shells)
Aux. functions:     184 (56 shells)
Use SHARK:           on

Processing maps (0.0 sec)
Average map sizes:
   Aux shells -> PAOs             54.0
   PAOs       -> AO shells        22.0

Calculating integrals NOTE: Switching SHARK to General Contraction for MDCI
      If that is not desired please turn off the PGCFlag in the input (%shark PGCFlag 0 end)
(0.3 sec, 4.096 MB)
Finished


-------------------------------------
Pair Pair Term precalculation with     
RI-(ij|mn) and (im|jn) transformation  
ON THE FLY                             
-------------------------------------

   IBatch   1 (of   1)              ... done (    0.000 sec)
Total EXT                           ...           0.000 sec

IAVPA Available = YES
VABPAO Available= YES
IJV Available   = YES
IJK Available   = NO
PNO3i Available = YES
PNO3j Available = YES
PNO4 Available  = YES
---------------------
RI-PNO TRANSFORMATION
---------------------

Total Number of PNOs                   ...   159
Average number of PNOs per pair        ...     9
Maximal number of PNOs per pair        ...    12
   #pairs with  1 -  5 PNOs   :    0
   #pairs with  6 - 10 PNOs   :    9
   #pairs with 11 - 15 PNOs   :    7
   #pairs with 16 - 20 PNOs   :    0
   #pairs with 21 - 25 PNOs   :    0
   #pairs with 26 - 30 PNOs   :    0
   #pairs with 31 - 35 PNOs   :    0
   #pairs with 36 - 40 PNOs   :    0
   #pairs with 41 - 45 PNOs   :    0
   #pairs with 46 - 50 PNOs   :    0

Generation of (ij|ab)[P] integrals            ... on
Generation of (ia|bc)[P],(ja|bc)[P] integrals ... on
Storage of 3 and 4 external integrals         ... on
Generation of ALL (ka|bc)[P] integrals        ... on
Keep RI integrals in memory                   ... off

Ibatch:  1 (of  1)
Starting 2-4 index PNO integral generation ... done

Timings:
Total PNO integral transformation time     ...          0.023 sec
Size of the 3-external file                ...         0 MB
Size of the 4-external file                ...         0 MB
Size of the IKJL file                      ...         0 MB
Size of the all 3-external file            ...         0 MB
Size of the 1-external file                ...         0 MB

Making pair/pair overlap matrices          ... done (    0.004 sec)
Size of the pair overlap file              ... 0 MB
Redoing the guess amplitudes               ... done (    0.000 sec)

-------------------------
FINAL STARTUP INFORMATION
-------------------------

E(0)                                       ...  -1053.595608697
E(SL-MP2)                                  ...     -0.002378938
E(SL-MP2) including corrections            ...     -0.002378938
Initial E(tot)                             ...  -1053.597987636
<T|T>                                      ...      0.000858372
Number of pairs included                   ... 16
Total number of pairs                      ... 36

------------------------------------------------
                  RHF COUPLED CLUSTER ITERATIONS
------------------------------------------------

Number of PNO amplitudes to be optimized   ...         1605
Number of non-PNO amplitudes               ...        20736
Untruncated number of regular amplitudes   ...        46656

Iter       E(tot)           E(Corr)          Delta-E          Residual     Time
  0  -1053.597987480     -0.002321024      0.000057914      0.000700095    0.01
                           *** Turning on DIIS ***
  1  -1053.598030751     -0.002364295     -0.000043271      0.000218520    0.01
  2  -1053.598050760     -0.002384304     -0.000020009      0.000035920    0.01
  3  -1053.598053491     -0.002387035     -0.000002731      0.000007180    0.01
  4  -1053.598053601     -0.002387146     -0.000000110      0.000001580    0.01
  5  -1053.598053579     -0.002387123      0.000000023      0.000000341    0.01
               --- The Coupled-Cluster iterations have converged ---

----------------------
COUPLED CLUSTER ENERGY
----------------------

E(0)                                       ...  -1053.595608697
E(CORR)(strong-pairs)                      ...     -0.002387123
E(CORR)(weak-pairs)                        ...     -0.000057758
E(CORR)(corrected)                         ...     -0.002444881
E(TOT)                                     ...  -1053.598053579
Singles Norm <S|S>**1/2                    ...      0.001512756  
T1 diagnostic                              ...      0.000378189  

------------------
LARGEST AMPLITUDES
------------------
  14-> 20  10-> 20       0.002218
  17-> 19  11-> 19       0.001797
  16-> 19  13-> 19       0.001793
  15-> 19  12-> 19       0.001789
  14-> 21  10-> 20       0.001629
  14-> 20  10-> 21       0.001629
  17-> 19  11-> 23       0.001427
  16-> 23  13-> 19       0.001424
  17-> 23  11-> 19       0.001419
  15-> 23  12-> 19       0.001419
  15-> 19  12-> 23       0.001418
  16-> 19  13-> 23       0.001417
  14-> 21  11-> 23       0.001261
  16-> 23  10-> 21       0.001259
  15-> 23  10-> 21       0.001243
  14-> 21  12-> 23       0.001239


 ===========================================================
         LOCAL ENERGY DECOMPOSITION FOR DLPNO-CC METHODS
 ===========================================================

Maximum Iterations for the Localization .. 600
Tolerance for the Localization          ..  1.00e-06
Number of fragments = 2
Fragment  1:  0
Fragment  2:  1

Populations of internal orbitals onto Fragments:
   0:      1.000    0.000  assigned to fragment   1
   1:      1.000    0.000  assigned to fragment   1
   2:      1.000    0.000  assigned to fragment   1
   3:      1.000    0.000  assigned to fragment   1
   4:      1.000    0.000  assigned to fragment   1
   5:      0.000    1.000  assigned to fragment   2
   6:      0.000    1.000  assigned to fragment   2
   7:      0.000    1.000  assigned to fragment   2
   8:      0.000    1.000  assigned to fragment   2
   9:      0.000    1.000  assigned to fragment   2
  10:      1.001    0.001  assigned to fragment   1
  11:      1.001    0.001  assigned to fragment   1
  12:      1.001    0.001  assigned to fragment   1
  13:      1.001    0.001  assigned to fragment   1
  14:      0.001    1.001  assigned to fragment   2
  15:      0.001    1.001  assigned to fragment   2
  16:      0.001    1.001  assigned to fragment   2
  17:      0.001    1.001  assigned to fragment   2

Summary assignment:
   9 orbitals assigned to fragment   1
   9 orbitals assigned to fragment   2


--------------------------------
CORRELATION ENERGY DECOMPOSITION
--------------------------------


--------------------------------------------------
INTER- vs INTRA-FRAGMENT CORRELATION ENERGIES (Eh)
--------------------------------------------------

                                   Fragment   1            Fragment   2            
                         ----------------------  ----------------------  
Intra strong pairs               0.000000000000         0.000000000000  sum=        0.000000000000
Intra weak pairs                 0.000000000000         0.000000000000  sum=        0.000000000000
Singles contribution            -0.000000000212        -0.000000000212  sum=       -0.000000000424
                         ----------------------  ----------------------  
                                -0.000000000212        -0.000000000212  sum=       -0.000000000424


Interaction correlation for Fragments   2 and   1:
--------------------------------------------------
Inter strong pairs               -0.002387122560 (   -1.498 kcal/mol)
Inter weak pairs                 -0.000057758216 (   -0.036 kcal/mol)
                          ----------------------
Total interaction                -0.002444880777 (   -1.534 kcal/mol)



Sum of INTRA-fragment correlation energies  =        -0.000000000424
Sum of INTER-fragment correlation energies  =        -0.002444880777
                                              ---------------------
Total correlation energy                    =        -0.002444881200

---------------------------------------------
DECOMPOSITION OF CCSD STRONG PAIRS INTO      
    DOUBLE EXCITATION TYPES (Eh)             
---------------------------------------------

Foster-Boys localization is used for localizing PNOs

Intra fragment contributions: 
INTRA Fragment 1                        0.000000000 
INTRA Fragment 2                        0.000000000 

Charge transfer contributions: 
Charge Transfer 1 to 2                 -0.000181360 
Charge Transfer 2 to 1                 -0.000215832 

Dispersion contributions: 
Dispersion  2,1                        -0.001989931 

Singles contributions:                   
Singles energy                         -0.000000000 

#Time for LED analysis ..       0.0 (sec)



--------------------------------------------------------------------------------
                                    TIMINGS
--------------------------------------------------------------------------------


Total execution time                   ...        1.555 sec

Localization of occupied MO's          ...        0.079 sec (  5.1%)
Fock Matrix Formation                  ...        0.255 sec ( 16.4%)
Global overlap, Fock, MKN matrices     ...        0.120 sec (  7.7%)
Differential overlap integrals         ...        0.101 sec (  6.5%)
Organizing maps                        ...        0.001 sec (  0.1%)
RI 3-index integral generations        ...        0.606 sec ( 39.0%)
RI-PNO integral transformation         ...        0.028 sec (  1.8%)
Initial Guess                          ...        0.067 sec (  4.3%)
DIIS Solver                            ...        0.002 sec (  0.1%)
State Vector Update                    ...        0.000 sec (  0.0%)
Sigma-vector construction              ...        0.065 sec (  4.2%)
  <D|H|D>(0-ext)                       ...        0.006 sec (  9.6% of sigma)
  <D|H|D>(4-ext)                       ...        0.002 sec (  3.8% of sigma)
  <D|H|D>(4-ext-corr)                  ...        0.007 sec ( 11.1% of sigma)
  CCSD doubles correction              ...        0.002 sec (  2.5% of sigma)
  <S|H|S>                              ...        0.010 sec ( 15.2% of sigma)
  <S|H|D>(1-ext)                       ...        0.006 sec (  9.1% of sigma)
  <S|H|D>(3-ext)                       ...        0.001 sec (  1.8% of sigma)
  Fock-dressing                        ...        0.021 sec ( 32.1% of sigma)
  Singles amplitudes                   ...        0.001 sec (  2.1% of sigma)
  (ik|jl)-dressing                     ...        0.004 sec (  6.9% of sigma)
Local Energy Decomposition             ...        0.006 sec (  0.4% of ALL)


Maximum memory used throughout the entire MDCI-calculation: 50.6 MB
----------------------------   ----------------
Inter-fragment dispersion       -0.002047689
----------------------------   ----------------


-------------------------   --------------------
FINAL SINGLE POINT ENERGY     -1053.597656386264 
-------------------------   --------------------


------------------------------------------------------------------------------
                              ORCA PROPERTY CALCULATIONS
------------------------------------------------------------------------------

GBWName                                 ... AR2LD_3.0.gbw
Number of atoms                         ...      2
Number of basis functions               ...    100
Max core memory                         ...   1024 MB

Electric properties:
Dipole moment                           ... YES
Quadrupole moment                       ...  NO
Static polarizability (Dipole/Dipole)   ...  NO
Static polarizability (Dipole/Quad.)    ...  NO
Static polarizability (Quad./Quad.)     ...  NO
Static polarizability (Velocity)        ...  NO

Atomic electric properties:
Dipole moment                           ...  NO
Quadrupole moment                       ...  NO
Static polarizability                   ...  NO

Choice of electric origin               ... Center of mass
Position of electric origin             ...     2.834589     0.000000     0.000000

General magnetic properties:
Magnetizability                         ...  NO

EPR properties:
g-Tensor (aka g-matrix)                 ...  NO
Zero-Field splitting spin-orbit         ...  NO
Zero-field splitting spin-spin          ...  NO
Hyperfine couplings                     ...  NO (   0 nuclei)
Quadrupole couplings                    ...  NO (   0 nuclei)
Contact density                         ...  NO (   0 nuclei)

NMR properties:
Chemical shifts                         ...  NO (   0 nuclei)
Spin-rotation constants                 ...  NO (   0 nuclei)
Spin-spin couplings                     ...  NO (   0 nuclei,    0 pairs)

Choice of magnetic origin               ... GIAO
Position of magnetic origin             ...     0.000000     0.000000     0.000000

Properties with geometric perturbations:
SCF Hessian                             ...  NO
IR spectrum                             ...  NO
VCD spectrum                            ...  NO
X-ray spectroscopy properties:
SCF XES/XAS/RIXS spectra                ...  NO


-------------
DIPOLE MOMENT
-------------

Method             : SCF
Type of density    : Electron Density
Multiplicity       :   1
Irrep              :   0
Energy             : -1053.5956086974567825 Eh
Relativity type    : 
Basis              : AO
                                X                 Y                 Z
Electronic contribution:      0.000000000       0.000000000      -0.000000000
Nuclear contribution   :     -0.000000000       0.000000000       0.000000000
                        -----------------------------------------
Total Dipole Moment    :     -0.000000000       0.000000000      -0.000000000
                        -----------------------------------------
Magnitude (a.u.)       :      0.000000000
Magnitude (Debye)      :      0.000000000



--------------------
Rotational spectrum 
--------------------
 
Rotational constants in cm-1:             0.000000             0.093775             0.093775 
Rotational constants in MHz :             0.000000          2811.318490          2811.318490 

Dipole components along the rotational axes: 
x,y,z [a.u.] :    -0.000000     0.000000    -0.000000 
x,y,z [Debye]:    -0.000000     0.000000    -0.000000 

 

Dipole moment calculation done in   0.0 sec 

Maximum memory used throughout the entire PROP-calculation: 6.7 MB

--------------------------------
SUGGESTED CITATIONS FOR THIS RUN
--------------------------------

Below you find a list of papers that are relevant to this ORCA run
We neither can nor want to force you to cite these papers, but we appreciate if you do
You receive ORCA, which is the product of decades of hard work by many enthusiastic individuals, for free
The only thing we kindly ask in return is that you cite our papers,
We deeply appreciate it, if you show your appreciation for ORCA by not just citing the generic ORCA reference.

Please note that relegating all ORCA citations to the supporting information does *not* help us.
SI sections are not indexed - citations you put there will not count into any citation statistics
But we need these citations in order to attract the funding resources that allow us to do what we are doing

Therefore, if you are a happy ORCA user, please consider citing a few of the papers listed below in the main body of your paper

In addition to the list printed below, the program has created the file AR2LD_3.0.bibtex that contains the list in bibtex format
You can import this file easily into all common literature databanks and citation aid programs


List of essential papers. We consider these as the minimum necessary citations

  1. Neese,F.
     Software update: the ORCA program system, version 5.0
     WIRES Comput. Molec. Sci., 2022 12(1)e1606
     doi.org/10.1002/wcms.1606

List of papers to cite with high priority. The work reported in these papers was absolutely
necessary for this run to complete.
Our perspective: the developers of density functionals and basis sets usually get cited in chemistry papers
Good! But without the algorithms to do something with them, the functionals or basis sets would not do anything.
Hence, in our opinion, the algorithm design and method developments papers are equally worthy of getting cited

  1. Neese,F.; Hansen,A.; Liakos,D.G.
     Efficient and accurate approximations to the local coupled cluster singles doubles method using a truncated pair natural orbital basis
     J. Chem. Phys., 2009 131 064103
     doi.org/10.1063/1.3173827
  2. Neese,F.; Wennmohs,F.; Hansen,A.
     Efficient and accurate local approximations to coupled-electron pair approaches: An attempt to revive the pair natural orbital method
     J. Chem. Phys., 2009 130 114108
     doi.org/10.1063/1.3086717
  3. Riplinger,C.; Neese,F.
     An efficient and near linear scaling pair natural orbital based local coupled cluster method
     J. Chem. Phys., 2013 138(3)Art. No. 034106
     doi.org/10.1063/1.4773581
  4. Datta,D.; Kossmann,S.; Neese,F.
     Analytic energy derivatives for the calculation of the first-order molecular properties using the domain-based local pair-natural orbital coupled-cluster theory
     J. Chem. Phys., 2016 145 
     doi.org/10.1063/1.4962369
  5. Riplinger,C.; Pinski,P.; Becker,U.; Valeev,E.F.; Neese,F.
     Sparse maps-A systematic infrastructure for reduced-scaling electronic structure methods. II. Linear scaling domain based pair natural orbital coupled cluster theory
     J. Chem. Phys., 2016 144 
     doi.org/10.1063/1.4939030
  6. Schneider,W.B.; Bistoni,G.; Sparta,M.; Saitow,M.; Riplinger,C.; Auer,A.A.; Neese,F.
     Decomposition of Intermolecular Interaction Energies within the Local Pair Natural Orbital Coupled Cluster Framework
     J. Theo. Comp. Chem., 2016 12 4778-4792
     doi.org/10.1021/acs.jctc.6b00523
  7. Bistoni,G.; Riplinger,C.; Minenkov,Y.; Cavallo,L.; Auer,A.A.; Neese,F.
     Treating Subvalence Correlation Effects in Domain Based Pair Natural Orbital Coupled Cluster Calculations: An Out-of-the-Box Approach
     J. Theo. Comp. Chem., 2017 13 3220-3227
     doi.org/10.1021/acs.jctc.7b00352
  8. Altun,A.; Neese,F.; Bistoni,G.
     HFLD: A Nonempirical London Dispersion-Corrected Hartree-Fock Method for the Quantification and Analysis of Noncovalent Interaction Energies of Large Molecular Systems
     J. Chem. Theory Comput., 2019 15 5894-5907
     doi.org/10.1021/acs.jctc.9b00425
  9. Neese,F.
     The SHARK Integral Generation and Digestion System
     J. Comp. Chem., 2022  1-16
     doi.org/10.1002/jcc.26942
 10. Altun,A.; Neese,F.; Bistoni,G.
     Open-Shell Variant of the London Dispersion-Corrected Hartree–Fock Method (HFLD) for the Quantification and Analysis of Noncovalent Interaction Energies
     J. Chem. Theory Comput., 2022 XX XXXX-XXXX
     doi.org/10.1021/acs.jctc.1c01295

List of suggested additional citations. These are papers that are important in the 'surrounding' of 
of this run, or papers that preceded the highly important papers. If you like your results we are grateful for a citation.

  1. Neese,F.
     The ORCA program system
     WIRES Comput. Molec. Sci., 2012 2(1)73-78
     doi.org/10.1002/wcms.81
  2. Neese,F.
     Software update: the ORCA program system, version 4.0
     WIRES Comput. Molec. Sci., 2018 8(1)1-6
     doi.org/10.1002/wcms.1327
  3. Neese,F.; Wennmohs,F.; Becker,U.; Riplinger,C.
     The ORCA quantum chemistry program package
     J. Chem. Phys., 2020 152 Art. No. L224108
     doi.org/10.1063/5.0004608
  4. Bistoni,G.
     Finding chemical concepts in the Hilbert space: Coupled cluster analyses of noncovalent interactions
     WIRES Comput. Molec. Sci., 2020 10(3)e1442
     doi.org/10.1002/wcms.1442

List of optional additional citations

  1. Neese,F.
     Approximate second-order SCF convergence for spin unrestricted wavefunctions
     Chem. Phys. Lett., 2000 325(1-3)93-98
     doi.org/10.1016/s0009-2614(00)00662-x

Timings for individual modules:

Sum of individual times          ...        4.366 sec (=   0.073 min)
Startup calculation              ...        1.147 sec (=   0.019 min)  26.3 %
SCF iterations                   ...        1.492 sec (=   0.025 min)  34.2 %
Property integrals               ...        0.056 sec (=   0.001 min)   1.3 %
Property calculations            ...        0.091 sec (=   0.002 min)   2.1 %
MDCI module                      ...        1.580 sec (=   0.026 min)  36.2 %
                             ****ORCA TERMINATED NORMALLY****
TOTAL RUN TIME: 0 days 0 hours 0 minutes 4 seconds 425 msec
