
                                 *****************
                                 * O   R   C   A *
                                 *****************

                                            #,                                       
                                            ###                                      
                                            ####                                     
                                            #####                                    
                                            ######                                   
                                           ########,                                 
                                     ,,################,,,,,                         
                               ,,#################################,,                 
                          ,,##########################################,,             
                       ,#########################################, ''#####,          
                    ,#############################################,,   '####,        
                  ,##################################################,,,,####,       
                ,###########''''           ''''###############################       
              ,#####''   ,,,,##########,,,,          '''####'''          '####       
            ,##' ,,,,###########################,,,                        '##       
           ' ,,###''''                  '''############,,,                           
         ,,##''                                '''############,,,,        ,,,,,,###''
      ,#''                                            '''#######################'''  
     '                                                          ''''####''''         
             ,#######,   #######,   ,#######,      ##                                
            ,#'     '#,  ##    ##  ,#'     '#,    #''#        ,####,   ,####,        
            ##       ##  ##   ,#'  ##            #'  '#       #'       #'  '#        
            ##       ##  #######   ##           ,######,      #####,   #    #        
            '#,     ,#'  ##    ##  '#,     ,#' ,#      #,     #,   #   #,  ,#        
             '#######'   ##     ##  '#######'  #'      '#     '####' # '####'        



                #########################################################
                #                        -***-                          #
                #          Department of theory and spectroscopy        #
                #                                                       #
                #                      Frank Neese                      #
                #                                                       #
                #     Directorship, Architecture, Infrastructure        #
                #                    SHARK, DRIVERS                     #
                #        Core code/Algorithms in most modules           #
                #                                                       #
                #        Max Planck Institute fuer Kohlenforschung      #
                #                Kaiser Wilhelm Platz 1                 #
                #                 D-45470 Muelheim/Ruhr                 #
                #                      Germany                          #
                #                                                       #
                #                  All rights reserved                  #
                #                        -***-                          #
                #########################################################


                         Program Version 6.0.0  -   RELEASE  -


 With contributions from (in alphabetic order):
   Daniel Aravena         : Magnetic Suceptibility
   Michael Atanasov       : Ab Initio Ligand Field Theory (pilot matlab implementation)
   Alexander A. Auer      : GIAO ZORA, VPT2 properties, NMR spectrum
   Ute Becker             : All parallelization in ORCA, NUMFREQ, NUMCALC
   Giovanni Bistoni       : ED, misc. LED, open-shell LED, HFLD
   Martin Brehm           : Molecular dynamics
   Dmytro Bykov           : pre 5.0 version of the SCF Hessian
   Marcos Casanova-Páez   : Triplet and SCS-CIS(D). UHF-(DLPNO)-IP/EA/STEOM-CCSD. UHF-CVS-IP/STEOM-CCSD
   Vijay G. Chilkuri      : MRCI spin determinant printing, contributions to CSF-ICE
   Pauline Colinet        : FMM embedding
   Dipayan Datta          : RHF DLPNO-CCSD density
   Achintya Kumar Dutta   : EOM-CC, STEOM-CC
   Nicolas Foglia         : Exact transition moments, OPA infrastructure, MCD improvements
   Dmitry Ganyushin       : Spin-Orbit,Spin-Spin,Magnetic field MRCI
   Miquel Garcia          : C-PCM and meta-GGA Hessian, CCSD/C-PCM, Gaussian charge scheme
   Tiago L. C. Gouveia    : GS-ROHF, GS-ROCIS
   Yang Guo               : DLPNO-NEVPT2, F12-NEVPT2, CIM, IAO-localization
   Andreas Hansen         : Spin unrestricted coupled pair/coupled cluster methods
   Ingolf Harden          : AUTO-CI MPn and infrastructure 
   Benjamin Helmich-Paris : MC-RPA, TRAH-(SCF,CASSCF), AVAS, COSX integrals, SCF dyn. polar.
   Lee Huntington         : MR-EOM, pCC
   Robert Izsak           : Overlap fitted RIJCOSX, COSX-SCS-MP3, EOM
   Riya Kayal             : Wick's Theorem for AUTO-CI, AUTO-CI UHF-CCSDT
   Emily Kempfer          : AUTO-CI, RHF CISDT and CCSDT
   Christian Kollmar      : KDIIS, OOCD, Brueckner-CCSD(T), CCSD density, CASPT2, CASPT2-K, improved NEVPT2
   Axel Koslowski         : Symmetry handling
   Simone Kossmann        : Meta GGA functionals, TD-DFT gradient, OOMP2, (MP2 Hessian; deprecated post 5.0)
   Lucas Lang             : DCDCAS
   Marvin Lechner         : AUTO-CI (C++ implementation), FIC-MRCC
   Spencer Leger          : CASSCF response
   Dagmar Lenk            : GEPOL surface, SMD, ORCA-2-JSON
   Dimitrios Liakos       : Extrapolation schemes; Compound Job, initial MDCI parallelization
   Dimitrios Manganas     : Further ROCIS development; embedding schemes. LFT, Crystal Embedding
   Dimitrios Pantazis     : SARC Basis sets
   Anastasios Papadopoulos: AUTO-CI, single reference methods and gradients
   Taras Petrenko         : pre 6.0 DFT Hessian and TD-DFT gradient, (ASA, deprecated), ECA, 1-Electron XAS/XES, NRVS
   Peter Pinski           : DLPNO-MP2, DLPNO-MP2 Gradient
   Christoph Reimann      : Effective Core Potentials
   Marius Retegan         : Local ZFS, SOC
   Christoph Riplinger    : Optimizer, TS searches, QM/MM, DLPNO-CCSD(T), (RO)-DLPNO pert. Triples
   Michael Roemelt        : Original ROCIS implementation
   Masaaki Saitow         : Open-shell DLPNO-CCSD energy and density
   Barbara Sandhoefer     : DKH picture change effects
   Kantharuban Sivalingam : CASSCF convergence/infrastructure, NEVPT2 and variants, FIC-MRCI
   Bernardo de Souza      : ESD, SOC TD-DFT
   Georgi Stoychev        : AutoAux, RI-MP2 NMR, DLPNO-MP2 response, X2C
   Van Anh Tran           : RI-MP2 g-tensors
   Willem Van den Heuvel  : Paramagnetic NMR
   Zikuan Wang            : NOTCH, Electric field optimization 
   Frank Wennmohs         : Technical directorship and infrastructure
   Hang Xu                : AUTO-CI-Response properties 


 We gratefully acknowledge several colleagues who have allowed us to
 interface, adapt or use parts of their codes:
   Stefan Grimme, W. Hujo, H. Kruse, P. Pracht,  : VdW corrections, initial TS optimization,
                  C. Bannwarth, S. Ehlert,         DFT functionals, gCP, sTDA/sTD-DF
                  L. Wittmann, M. Mueller
   Ed Valeev, F. Pavosevic, A. Kumar             : LibInt (2-el integral package), F12 methods
   Garnet Chan, S. Sharma, J. Yang, R. Olivares  : DMRG
   Ulf Ekstrom                                   : XCFun DFT Library
   Mihaly Kallay                                 : mrcc  (arbitrary order and MRCC methods)
   Frank Weinhold                                : gennbo (NPA and NBO analysis)
   Simon Mueller                                 : openCOSMO-RS
   Christopher J. Cramer and Donald G. Truhlar   : smd solvation model
   Lars Goerigk                                  : TD-DFT with DH, B97 family of functionals
   V. Asgeirsson, H. Jonsson                     : NEB implementation
   FAccTs GmbH                                   : IRC, NEB, NEB-TS, DLPNO-Multilevel, CI-OPT
                                                   MM, QMMM, 2- and 3-layer-ONIOM, Crystal-QMMM,
                                                   LR-CPCM, SF, NACMEs, symmetry and pop. for TD-DFT,
                                                   nearIR, NL-DFT gradient (VV10), updates on ESD,
                                                   ML-optimized integration grids, MBIS, APM,
                                                   GOAT, DOCKER, SOLVATOR, interface openCOSMO-RS
   S Lehtola, MJT Oliveira, MAL Marques          : LibXC Library
   Liviu Ungur et al                             : ANISO software


 Your calculation uses the libint2 library for the computation of 2-el integrals
 For citations please refer to: http://libint.valeyev.net

 Your ORCA version has been built with support for libXC version: 6.2.2
 For citations please refer to: https://libxc.gitlab.io

 This ORCA versions uses:
   CBLAS   interface :  Fast vector & matrix operations
   LAPACKE interface :  Fast linear algebra routines
   SCALAPACK package :  Parallel linear algebra routines
   Shared memory     :  Shared parallel matrices
   BLAS/LAPACK       :  OpenBLAS 0.3.27  USE64BITINT DYNAMIC_ARCH NO_AFFINITY Haswell SINGLE_THREADED
        Core in use  :  Haswell
   Copyright (c) 2011-2014, The OpenBLAS Project


================================================================================

----- Orbital basis set information -----
Your calculation utilizes the basis: aug-cc-pVDZ 
    H, B-Ne : Obtained from the ccRepo (grant-hill.group.shef.ac.uk/ccrepo) Feb. 2017
              R. A. Kendall, T. H. Dunning, Jr., R. J. Harrison, J. Chem. Phys. 96, 6796 (1992)
         He : Obtained from the ccRepo (grant-hill.group.shef.ac.uk/ccrepo) Feb. 2017
              D. E. Woon, T. H. Dunning, Jr., J. Chem. Phys. 100, 2975 (1994)
  Li-Be, Na : Obtained from the ccRepo (grant-hill.group.shef.ac.uk/ccrepo) Feb. 2017
              B. P. Prascher, D. E. Woon, K. A. Peterson, T. H. Dunning, Jr., A. K. Wilson, Theor. Chem. Acc. 128, 69 (2011)
         Mg : Obtained from the Peterson Research Group Website (tyr0.chem.wsu.edu/~kipeters) Feb. 2017
              B. P. Prascher, D. E. Woon, K. A. Peterson, T. H. Dunning, Jr., A. K. Wilson, Theor. Chem. Acc. 128, 69 (2011)
      Al-Ar : Obtained from the ccRepo (grant-hill.group.shef.ac.uk/ccrepo) Feb. 2017
              D. E. Woon, T. H. Dunning, Jr., J. Chem. Phys. 98, 1358 (1993)
      Sc-Zn : Obtained from the ccRepo (grant-hill.group.shef.ac.uk/ccrepo) Feb. 2017
              N. B. Balabanov, K. A. Peterson, J. Chem. Phys. 123, 064107 (2005)
              N. B. Balabanov, K. A. Peterson, J. Chem. Phys. 125, 074110 (2006)
      Ga-Kr : Obtained from the ccRepo (grant-hill.group.shef.ac.uk/ccrepo) Feb. 2017
              A. K. Wilson, D. E. Woon, K. A. Peterson, T. H. Dunning, Jr., J. Chem. Phys. 110, 7667 (1999)

----- AuxC basis set information -----
Your calculation utilizes the auxiliary basis: aug-cc-pVDZ/C 
  H-He, B, Ne, Al-Ar, Ga-Ge, Se-Br : Obtained from the EMSL Basis Set Exchange (bse.pnl.gov) Feb. 2017
                                     F. Weigend, A. Kohn, C. Hattig, J. Chem. Phys. 116, 3175 (2002)
                            Be, Mg : Obtained from the TURBOMOLE 7.0 basis set library
                                     C. Haettig, Phys. Chem. Chem. Phys. 7, 59 (2005)
                               C-F : Obtained from the EMSL Basis Set Exchange (bse.pnl.gov) Feb. 2017
                                     C. Haettig, Phys. Chem. Chem. Phys. 7, 59 (2005)
                                     F. Weigend, A. Kohn, C. Hattig, J. Chem. Phys. 116, 3175 (2002)
                                As : Obtained from the EMSL Basis Set Exchange (bse.pnl.gov) Feb. 2017
                                     C. Haettig, G. Schmitz, J. Kossmann, Phys. Chem. Chem. Phys. 14, 6549 (2012)
                                Kr : Obtained from the TURBOMOLE 7.0 basis set library
                                     F. Weigend, A. Kohn, C. Hattig, J. Chem. Phys. 116, 3175 (2002)
                                     S function revised in Sep. 2009

================================================================================
                                        WARNINGS
                       Please study these warnings very carefully!
================================================================================


WARNING: Post HF methods need fully converged wavefunctions
  ===> : Setting SCFConvForced true
         You can overwrite this default with %scf ConvForced false 


================================================================================
                                       INPUT FILE
================================================================================
NAME = AR2LD_3.2.inp
|  1> # MP2 scan of the potential energy curve for Ar...Ar
|  2>         ! HFLD aug-cc-pvdz aug-cc-pvdz/C verytightscf
|  3>         *xyz 0 1
|  4>         Ar(1)	0.000000000000000	0.000000000000000	0.00000000000000
|  5>         Ar(2)	3.2	0.000000000000000	0.00000000000000
|  6>         **                         ****END OF INPUT****
================================================================================

                       ****************************
                       * Single Point Calculation *
                       ****************************

---------------------------------
CARTESIAN COORDINATES (ANGSTROEM)
---------------------------------
  Ar     0.000000    0.000000    0.000000
  Ar     3.200000    0.000000    0.000000

----------------------------
CARTESIAN COORDINATES (A.U.)
----------------------------
  NO LB      ZA    FRAG     MASS         X           Y           Z
   0 Ar   18.0000    1    39.948    0.000000    0.000000    0.000000
   1 Ar   18.0000    2    39.948    6.047124    0.000000    0.000000

----------------------------------------------
CARTESIAN COORDINATES OF FRAGMENTS (ANGSTROEM)
----------------------------------------------

 FRAGMENT 1 
  Ar    0.000000    0.000000    0.000000

 FRAGMENT 2 
  Ar    3.200000    0.000000    0.000000

--------------------------------
INTERNAL COORDINATES (ANGSTROEM)
--------------------------------
 Ar     0   0   0     0.000000000000     0.00000000     0.00000000
 Ar     1   0   0     3.200000000000     0.00000000     0.00000000

---------------------------
INTERNAL COORDINATES (A.U.)
---------------------------
 Ar     0   0   0     0.000000000000     0.00000000     0.00000000
 Ar     1   0   0     6.047123628548     0.00000000     0.00000000

---------------------
BASIS SET INFORMATION
---------------------
There are 1 groups of distinct atoms

 Group   1 Type Ar  : 35s16p2d contracted to 5s4p2d pattern {11111111/7711/11}

Atom   0Ar   basis set group =>   1
Atom   1Ar   basis set group =>   1
---------------------------------
AUXILIARY/C BASIS SET INFORMATION
---------------------------------
There are 1 groups of distinct atoms

 Group   1 Type Ar  : 10s8p6d4f contracted to 10s8p6d4f pattern {1111111111/11111111/111111/1111}

Atom   0Ar   basis set group =>   1
Atom   1Ar   basis set group =>   1
------------------------------------------------------------------------------
                             ORCA STARTUP CALCULATIONS
------------------------------------------------------------------------------
------------------------------------------------------------------------------
                   ___                                                        
                  /   \      - P O W E R E D   B Y -                         
                 /     \                                                     
                 |  |  |   _    _      __       _____    __    __             
                 |  |  |  | |  | |    /  \     |  _  \  |  |  /  |          
                  \  \/   | |  | |   /    \    | | | |  |  | /  /          
                 / \  \   | |__| |  /  /\  \   | |_| |  |  |/  /          
                |  |  |   |  __  | /  /__\  \  |    /   |      \           
                |  |  |   | |  | | |   __   |  |    \   |  |\   \          
                \     /   | |  | | |  |  |  |  | |\  \  |  | \   \       
                 \___/    |_|  |_| |__|  |__|  |_| \__\ |__|  \__/        
                                                                              
                      - O R C A' S   B I G   F R I E N D -                    
                                      &                                       
                       - I N T E G R A L  F E E D E R -                       
                                                                              
 v1 FN, 2020, v2 2021, v3 2022-2024                                           
------------------------------------------------------------------------------


----------------------
SHARK INTEGRAL PACKAGE
----------------------

Number of atoms                             ...      2
Number of basis functions                   ...    100
Number of shells                            ...     48
Maximum angular momentum                    ...      2
Integral batch strategy                     ... SHARK/LIBINT Hybrid
RI-J (if used) integral strategy            ... SPLIT-RIJ (Revised 2003 algorithm where possible)
Printlevel                                  ...      1
Contraction scheme used                     ... PARTIAL GENERAL contraction
Prescreening option                         ... SCHWARTZ
   Thresh                                   ... 1.000e-12
   Tcut                                     ... 1.000e-14
   Tpresel                                  ... 1.000e-14 
Coulomb Range Separation                    ... NOT USED
Exchange Range Separation                   ... NOT USED
Multipole approximations                    ... NOT USED
Finite Nucleus Model                        ... NOT USED
CABS basis                                  ... NOT available
Auxiliary Coulomb fitting basis             ... NOT available
Auxiliary J/K fitting basis                 ... NOT available
Auxiliary Correlation fitting basis         ... AVAILABLE
   # of basis functions in Aux-C            ...    184
   # of shells in Aux-C                     ...     56
   Maximum angular momentum in Aux-C        ...      3
Auxiliary 'external' fitting basis          ... NOT available

Checking pre-screening integrals            ... done (  0.0 sec) Dimension = 48
Save PGC pre-screening integrals            ... done (  0.0 sec) Dimension = 48
Calculate PGC overlap integrals             ... done (  0.0 sec) Dimension = 22
Calculating pre-screening integrals (ORCA)  ... done (  0.1 sec) Dimension = 22
Check shell pair data                       ... done (  0.0 sec)
Shell pair information
Shell pair cut-off parameter TPreSel        ...   1.0e-14
Total number of shell pairs                 ...      1176
Shell pairs after pre-screening             ...       921
Total number of primitive shell pairs       ...      1176
Primitive shell pairs kept                  ...       921
          la=0 lb=0:    251 shell pairs
          la=1 lb=0:    348 shell pairs
          la=1 lb=1:    136 shell pairs
          la=2 lb=0:    104 shell pairs
          la=2 lb=1:     72 shell pairs
          la=2 lb=2:     10 shell pairs

Calculating one electron integrals          ... done (  0.0 sec)
Calculating RI/C V-Matrix + Cholesky decomp.... done (  0.0 sec)
Calculating Nuclear repulsion               ... done (  0.0 sec) ENN=     53.579192340375 Eh

Diagonalization of the overlap matrix:
Smallest eigenvalue                        ... 2.422e-02
Time for diagonalization                   ...    0.000 sec
Threshold for overlap eigenvalues          ... 1.000e-07
Number of eigenvalues below threshold      ... 0
Time for construction of square roots      ...    0.000 sec
Total time needed                          ...    0.001 sec

-------------------
DFT GRID GENERATION
-------------------

General Integration Accuracy     IntAcc      ... 4.388
Radial Grid Type                 RadialGrid  ... OptM3 with GC (2021)
Angular Grid (max. ang.)         AngularGrid ... 4 (Lebedev-302)
Angular grid pruning method      GridPruning ... 4 (adaptive)
Weight generation scheme         WeightScheme... mBecke (2022)
Basis function cutoff            BFCut       ... 1.0000e-12
Integration weight cutoff        WCut        ... 1.0000e-14
Partially contracted basis set               ... off
Rotationally invariant grid construction     ... off
Angular grids for H and He will be reduced by one unit

Total number of grid points                  ...    14722
Total number of batches                      ...      232
Average number of points per batch           ...       63
Average number of grid points per atom       ...     7361

---------------------
SHARK GRID GENERATION
---------------------

General Integration Accuracy     IntAcc      ... 4.388
Radial Grid Type                 RadialGrid  ... OptM3 with GC (2021)
Angular Grid (max. ang.)         AngularGrid ... 4 (Lebedev-302)
Angular grid pruning method      GridPruning ... 4 (adaptive)
Weight generation scheme         WeightScheme... mBecke (2022)
Basis function cutoff            BFCut       ... 1.0000e-12
Integration weight cutoff        WCut        ... 1.0000e-14
Partially contracted basis set               ... off
Rotationally invariant grid construction     ... off
Angular grids for H and He will be reduced by one unit
Core-polarized basis detected: some atoms will have their core
                               angular grid increased.
Steep s-basis detected: some atoms will have their radial
                        grid points doubled.

Total number of grid points                  ...    38684
Total number of batches                      ...      606
Average number of points per batch           ...       63
Average number of grid points per atom       ...    19342
Initializing property integral containers    ... done (  0.0 sec)

SHARK setup successfully completed in   1.0 seconds

Maximum memory used throughout the entire STARTUP-calculation: 26.3 MB
-------------------------------------------------------------------------------
                                 ORCA GUESS
                   Start orbitals & Density for SCF / CASSCF
-------------------------------------------------------------------------------

------------
SCF SETTINGS
------------
Hamiltonian:
 Ab initio Hamiltonian  Method          .... Hartree-Fock(GTOs)


General Settings:
 Integral files         IntName         .... AR2LD_3.2
 Hartree-Fock type      HFTyp           .... RHF
 Total Charge           Charge          ....    0
 Multiplicity           Mult            ....    1
 Number of Electrons    NEL             ....   36
 Basis Dimension        Dim             ....   54
 Nuclear Repulsion      ENuc            ....     53.5791923404 Eh

Convergence Acceleration:
 AO-DIIS                CNVDIIS         .... on
   Start iteration      DIISMaxIt       ....    12
   Startup error        DIISStart       ....  0.200000
   # of expansion vecs  DIISMaxEq       ....     5
   Bias factor          DIISBfac        ....   1.050
   Max. coefficient     DIISMaxC        ....  10.000
 MO-DIIS                CNVKDIIS        .... off
 Trust-Rad. Augm. Hess. CNVTRAH         .... auto
   Auto Start mean grad. ratio tolernc. ....  1.125000
   Auto Start start iteration           ....    50
   Auto Start num. interpolation iter.  ....    10
   Max. Number of Micro iterations      ....    24
   Max. Number of Macro iterations      .... Maxiter - #DIIS iter
   Number of Davidson start vectors     ....     2
   Converg. threshold    (grad. norm)   ....   2.000e-06
   Grad. Scal. Fac. for Micro threshold ....   0.100
   Minimum threshold for Micro iter.    ....   1.000e-02
   NR start threshold (gradient norm)   ....   1.000e-04
   Initial trust radius                 ....   0.400
   Minimum AH scaling param. (alpha)    ....   1.000
   Maximum AH scaling param. (alpha)    .... 1000.000
   Quad. conv. algorithm                .... NR
   White noise on init. David. guess    .... on
   Maximum white noise                  ....   0.010
   Pseudo random numbers                .... off
   Inactive MOs                         .... canonical
   Orbital update algorithm             .... Taylor
   Preconditioner                       .... Diag
   Full preconditioner red. dimension   ....   250
 SOSCF                  CNVSOSCF        .... on
   Start iteration      SOSCFMaxIt      ....   150
   Startup grad/error   SOSCFStart      ....  0.003300
   Hessian update       SOSCFHessUp     .... L-BFGS
 Level Shifting         CNVShift        .... on
   Level shift para.    LevelShift      ....    0.2500
   Turn off err/grad.   ShiftErr        ....    0.0010
 Zerner damping         CNVZerner       .... off
 Static damping         CNVDamp         .... on
   Fraction old density DampFac         ....    0.7000
   Max. Damping (<1)    DampMax         ....    0.9800
   Min. Damping (>=0)   DampMin         ....    0.0000
   Turn off err/grad.   DampErr         ....    0.1000

SCF Procedure:
 Maximum # iterations   MaxIter         ....   125
 SCF integral mode      SCFMode         .... Direct
   Integral package                     .... SHARK and LIBINT hybrid scheme
 Reset frequency        DirectResetFreq ....    20
 Integral Threshold     Thresh          ....  1.000e-12 Eh
 Primitive CutOff       TCut            ....  1.000e-14 Eh

Convergence Tolerance:
 Convergence Check Mode ConvCheckMode   .... Total+1el-Energy
 Convergence forced     ConvForced      .... 1
 Energy Change          TolE            ....  1.000e-09 Eh
 1-El. energy change                    ....  1.000e-06 Eh
 Orbital Gradient       TolG            ....  2.000e-06
 Orbital Rotation angle TolX            ....  2.000e-06
 DIIS Error             TolErr          ....  1.000e-08

------------------------------
INITIAL GUESS: MODEL POTENTIAL
------------------------------
Loading Hartree-Fock densities                     ... done
Calculating cut-offs                               ... done
Initializing the effective Hamiltonian             ... done
Setting up the integral package (SHARK)            ... done
Starting the Coulomb interaction                   ... done (   0.0 sec)
Making the grid                                    ... done (   0.0 sec)
Mapping shells                                     ... done
Starting the XC term evaluation                    ... done (   0.0 sec)
Transforming the Hamiltonian                       ... done (   0.0 sec)
Diagonalizing the Hamiltonian                      ... done (   0.0 sec)
Back transforming the eigenvectors                 ... done (   0.0 sec)
Now organizing SCF variables                       ... done
                      ------------------
                      INITIAL GUESS DONE (   0.0 sec)
                      ------------------
             **** ENERGY FILE WAS UPDATED (AR2LD_3.2.en.tmp) ****
Finished Guess after   0.1 sec
Maximum memory used throughout the entire GUESS-calculation: 5.3 MB

-------------------------------------------------------------------------------------------
                                      ORCA LEAN-SCF
                              memory conserving SCF solver
-------------------------------------------------------------------------------------------

----------------------------------------D-I-I-S--------------------------------------------
Iteration    Energy (Eh)           Delta-E    RMSDP     MaxDP     DIISErr   Damp  Time(sec)
-------------------------------------------------------------------------------------------
               ***  Starting incremental Fock matrix formation  ***
    1    -1053.5867910325316643     0.00e+00  1.28e-03  1.72e-02  9.20e-02  0.700   0.2
    2    -1053.5902265340810118    -3.44e-03  9.95e-04  1.25e-02  6.59e-02  0.700   0.1
                               ***Turning on AO-DIIS***
    3    -1053.5927213224235857    -2.49e-03  7.90e-04  9.19e-03  4.69e-02  0.700   0.1
    4    -1053.5945141406737093    -1.79e-03  1.94e-03  2.16e-02  3.30e-02  0.000   0.1
                              *** Initializing SOSCF ***
---------------------------------------S-O-S-C-F--------------------------------------
Iteration    Energy (Eh)           Delta-E    RMSDP     MaxDP     MaxGrad    Time(sec)
--------------------------------------------------------------------------------------
    5    -1053.5988850697031012    -4.37e-03  9.95e-05  9.42e-04  1.07e-03     0.1
               *** Restarting incremental Fock matrix formation ***
    6    -1053.5988907204073257    -5.65e-06  4.86e-05  5.28e-04  2.94e-04     0.2
    7    -1053.5988917396148281    -1.02e-06  1.79e-05  1.74e-04  7.18e-05     0.1
    8    -1053.5988918052628378    -6.56e-08  1.01e-06  1.57e-05  8.58e-06     0.1
    9    -1053.5988918055909380    -3.28e-10  2.01e-07  1.94e-06  9.86e-07     0.1
                 **** Energy Check signals convergence ****

               *****************************************************
               *                     SUCCESS                       *
               *           SCF CONVERGED AFTER   9 CYCLES          *
               *****************************************************

             **** ENERGY FILE WAS UPDATED (AR2LD_3.2.en.tmp) ****

----------------
TOTAL SCF ENERGY
----------------

Total Energy       :      -1053.59889180559094 Eh          -28669.88339 eV

Components:
Nuclear Repulsion  :         53.57919234037500 Eh            1457.96395 eV
Electronic Energy  :      -1107.17808414596584 Eh          -30127.84734 eV
One Electron Energy:      -1563.58045646063647 Eh          -42547.18728 eV
Two Electron Energy:        456.40237231467063 Eh           12419.33994 eV

Virial components:
Potential Energy   :      -2107.23689760761363 Eh          -57340.83114 eV
Kinetic Energy     :       1053.63800580202269 Eh           28670.94774 eV
Virial Ratio       :          1.99996287719671

---------------
SCF CONVERGENCE
---------------

  Last Energy change         ...    3.2810e-10  Tolerance :   1.0000e-09
  Last MAX-Density change    ...    1.9391e-06  Tolerance :   1.0000e-08
  Last RMS-Density change    ...    2.0060e-07  Tolerance :   1.0000e-09
  Last DIIS Error            ...    1.0721e-03  Tolerance :   1.0000e-08
  Last Orbital Gradient      ...    9.8640e-07  Tolerance :   2.0000e-06
  Last Orbital Rotation      ...    1.1090e-06  Tolerance :   2.0000e-06


----------------
ORBITAL ENERGIES
----------------

  NO   OCC          E(Eh)            E(eV) 
   0   2.0000    -118.608923     -3227.5129 
   1   2.0000    -118.608922     -3227.5129 
   2   2.0000     -12.321333      -335.2805 
   3   2.0000     -12.321317      -335.2801 
   4   2.0000      -9.569904      -260.4103 
   5   2.0000      -9.569902      -260.4103 
   6   2.0000      -9.569894      -260.4101 
   7   2.0000      -9.569894      -260.4101 
   8   2.0000      -9.569893      -260.4100 
   9   2.0000      -9.569893      -260.4100 
  10   2.0000      -1.281770       -34.8787 
  11   2.0000      -1.275273       -34.7020 
  12   2.0000      -0.612935       -16.6788 
  13   2.0000      -0.595194       -16.1960 
  14   2.0000      -0.595194       -16.1960 
  15   2.0000      -0.588111       -16.0033 
  16   2.0000      -0.588111       -16.0033 
  17   2.0000      -0.571393       -15.5484 
  18   0.0000       0.126781         3.4499 
  19   0.0000       0.139813         3.8045 
  20   0.0000       0.139813         3.8045 
  21   0.0000       0.148940         4.0529 
  22   0.0000       0.176772         4.8102 
  23   0.0000       0.176772         4.8102 
  24   0.0000       0.189197         5.1483 
  25   0.0000       0.292561         7.9610 
  26   0.0000       0.489004        13.3065 
  27   0.0000       0.493600        13.4315 
  28   0.0000       0.493600        13.4315 
*Only the first 10 virtual orbitals were printed.

                    ********************************
                    * MULLIKEN POPULATION ANALYSIS *
                    ********************************

-------------------------
MULLIKEN FRAGMENT CHARGES
-------------------------
 Fragment   0 :   0.000000
 Fragment   1 :  -0.000000
Sum of fragment charges:    0.0000000

---------------------------------
MULLIKEN FRAGMENT OVERLAP CHARGES
---------------------------------
                  0          1    
      0      18.013722  -0.027444
      1      -0.027444  18.013722

-----------------------
MULLIKEN ATOMIC CHARGES
-----------------------
   0 Ar:    0.000000
   1 Ar:   -0.000000
Sum of atomic charges:    0.0000000

--------------------------------
MULLIKEN REDUCED ORBITAL CHARGES
--------------------------------
  0 Ars       :     5.998024  s :     5.998024
      pz      :     3.999907  p :    12.001669
      px      :     4.001856
      py      :     3.999907
      dz2     :     0.000030  d :     0.000307
      dxz     :     0.000093
      dyz     :     0.000000
      dx2y2   :     0.000090
      dxy     :     0.000093

  1 Ars       :     5.998024  s :     5.998024
      pz      :     3.999907  p :    12.001669
      px      :     4.001856
      py      :     3.999907
      dz2     :     0.000030  d :     0.000307
      dxz     :     0.000093
      dyz     :     0.000000
      dx2y2   :     0.000090
      dxy     :     0.000093



                     *******************************
                     * LOEWDIN POPULATION ANALYSIS *
                     *******************************

------------------------
LOEWDIN FRAGMENT CHARGES
------------------------
 Fragment   0 :   0.000000
 Fragment   1 :   0.000000

----------------------------
LOEWDIN FRAGMENT BOND ORDERS
----------------------------
                  0          1    
      0      18.000000   0.134583
      1       0.134583  18.000000

----------------------
LOEWDIN ATOMIC CHARGES
----------------------
   0 Ar:    0.000000
   1 Ar:    0.000000

-------------------------------
LOEWDIN REDUCED ORBITAL CHARGES
-------------------------------
  0 Ars       :     5.986745  s :     5.986745
      pz      :     3.999798  p :    12.008338
      px      :     4.008741
      py      :     3.999798
      dz2     :     0.001128  d :     0.004917
      dxz     :     0.000202
      dyz     :     0.000000
      dx2y2   :     0.003385
      dxy     :     0.000202

  1 Ars       :     5.986745  s :     5.986745
      pz      :     3.999798  p :    12.008338
      px      :     4.008741
      py      :     3.999798
      dz2     :     0.001128  d :     0.004917
      dxz     :     0.000202
      dyz     :     0.000000
      dx2y2   :     0.003385
      dxy     :     0.000202



                      *****************************
                      * MAYER POPULATION ANALYSIS *
                      *****************************

  NA   - Mulliken gross atomic population
  ZA   - Total nuclear charge
  QA   - Mulliken gross atomic charge
  VA   - Mayer's total valence
  BVA  - Mayer's bonded valence
  FA   - Mayer's free valence

  ATOM       NA         ZA         QA         VA         BVA        FA
  0 Ar    18.0000    18.0000     0.0000    -0.0038    -0.0038     0.0000
  1 Ar    18.0000    18.0000     0.0000    -0.0038    -0.0038    -0.0000

  Mayer bond orders larger than 0.100000
  => no bond orders to print

-------
TIMINGS
-------

Total SCF time: 0 days 0 hours 0 min 1 sec 

Total time                  ....       1.333 sec
Sum of individual times     ....       1.325 sec  ( 99.4%)

SCF preparation             ....       0.042 sec  (  3.1%)
Fock matrix formation       ....       1.268 sec  ( 95.1%)
  Startup                   ....       0.000 sec  (  0.0% of F)
  Coulomb+Exchange Fock     ....       1.265 sec  ( 99.8% of F)
Diagonalization             ....       0.000 sec  (  0.0%)
Density matrix formation    ....       0.004 sec  (  0.3%)
Total Energy calculation    ....       0.000 sec  (  0.0%)
Population analysis         ....       0.001 sec  (  0.1%)
Orbital Transformation      ....       0.002 sec  (  0.1%)
Orbital Orthonormalization  ....       0.000 sec  (  0.0%)
DIIS solution               ....       0.005 sec  (  0.4%)
SOSCF solution              ....       0.003 sec  (  0.2%)
Finished LeanSCF after   1.3 sec

Maximum memory used throughout the entire LEANSCF-calculation: 7.3 MB

------------------------------------------------------------------------------
                         ORCA PROPERTY INTEGRAL CALCULATIONS
------------------------------------------------------------------------------

GBWName                                   ... AR2LD_3.2.gbw
Number of atoms                           ...      2
Number of basis functions                 ...    100
Max core memory                           ...   1024 MB

Dipole integrals                          ... YES
Quadrupole integrals                      ...  NO
Linear momentum integrals                 ... YES
Angular momentum integrals                ... YES
Higher moments length integrals           ...  NO
Higher moments velocity integrals         ...  NO
Kinetic energy integrals                  ...  NO
GIAO right hand sides                     ...  NO
GIAO dipole derivative integrals          ...  NO
SOC integrals                             ...  NO
EPR diamagnetic integrals (GIAO)          ...  NO
EPR gauge integrals                       ...  NO
Field gradient integrals                  ...  NO (   0 nuclei)
Spin-dipole/Fermi contact integrals       ...  NO (   0 nuclei)
Contact density integrals                 ...  NO (   0 nuclei)
Nucleus-orbit integrals                   ...  NO (   0 nuclei)
Geometric perturbations                   ...  NO (   2 nuclei)

Choice of electric origin   ... Center of mass
Position of electric origin ... (  3.0236,  0.0000,  0.0000) 
Choice of magnetic origin   ... GIAO
Position of magnetic origin ... (  0.0000,  0.0000,  0.0000) 

Calculating integrals                     ... Electric Dipole (Length)     done (  0.0 sec)
Calculating integrals                     ... Linear Momentum              done (  0.0 sec)
Calculating integrals                     ... Angular Momentum  (ElOri)    done (  0.0 sec)

Property integrals calculated in   0.0 sec

Maximum memory used throughout the entire PROPINT-calculation: 5.4 MB


--------------------------------------------------------------------------------
                             ORCA-MATRIX DRIVEN CI
--------------------------------------------------------------------------------


Wavefunction type
-----------------
Correlation treatment                      ...      CCSD     
Single excitations                         ... ON
Orbital optimization                       ... OFF
Calculation of Z vector                    ... OFF
Calculation of Brueckner orbitals          ... OFF
Perturbative triple excitations            ... OFF
Calculation of F12 correction              ... OFF
Frozen core treatment                      ... chemical core (20 el)
Reference Wavefunction                     ... RHF
  Internal Orbitals:    10 ...   17 (  8 MO's/ 16 electrons)
  Virtual  Orbitals:    18 ...   53 ( 36 MO's              )
Number of AO's                             ...     54
Number of electrons                        ...     36
Number of correlated electrons             ...     16

Algorithmic settings
--------------------
Integral transformation                    ... All integrals via the RI transformation
K(C) Formation                             ... RI-DLPNO
   PNO-Integral Storage                    ... ON DISK
   PNO occupation number cut-off           ... 3.330e-07
   Singles PNO occupation number cut-off   ... 9.990e-09
   PNO Mulliken prescreening cut-off       ... 1.000e-03
   Domain cut-off (Mulliken population)    ... 1.000e-03
   PNO Normalization                       ...    1
Maximum number of iterations               ...        50
Convergence tolerance (max. residuum)      ... 1.000e-06
Level shift for amplitude update           ... 2.000e-01
Maximum number of DIIS vectors             ...         7
DIIS turned on at iteration                ...         0
Damping before turning on DIIS             ...     0.500
Damping after turning on DIIS              ...     0.000
Pair specific amplitude update             ... OFF
Natural orbital iterations                 ... OFF
Perturbative natural orbital generation    ... OFF
Printlevel                                 ... 2

Singles Fock matrix elements calculated using PNOs.

Memory handling:
----------------
Maximum memory for working arrays          ...    512 MB
Data storage in matrix containers          ... UNCOMPRESSED
Data type for integral storage             ... DOUBLE
In-Core Storage of quantities:
   Amplitudes+Sigma Vector      ... NO
   J+K operators                ... NO
   DIIS vectors                 ... NO
   3-external integrals         ... NO
   4-external integrals         ... NO

Localization treatment:
-----------------------
Localization option                        ...    2
Localization threshhold                    ... -1.0e+00
Using relative localization threshhold     ... 1.0e-08
Neglect threshold for strong pairs         ... 1.000e-05 Eh
Prescreening threshold for very weak pairs ... 1.000e-07 Eh
Using randomized seed for localization     ... on

Initializing the integral package          ... done
Localizing the valence orbitals
Localizing the valence orbitals
------------------------------------------------------------------------------
                           ORCA ORBITAL LOCALIZATION
------------------------------------------------------------------------------

Input orbitals are from                  ... AR2LD_3.2.proc0.gbw
Output orbitals are to                   ... AR2LD_3.2.proc0.loc
Max. number of iterations                ... 128
Localizations seeded randomly            ... on
Convergence tolerance                    ... 2.000e-07
Using relative localization threshhold   ... 1.000e-08
Threshold for strong local MOs           ... 9.500e-01
Threshold for bond MOs                   ... 8.500e-01
Operator                                 ... 0
Orbital range for localization           ... 10 to 17
Localization criterion                   ... FOSTER-BOYS
Doing the dipole integrals     ... o.k.
Entering Jacobi type localization:
Using Cholesky decomposition as initial guess.
Initial value of the localization sum :    73.160335
ITERATION   0 : L=   77.6714378710 DL=  4.51e+00 (MAX-T)=  45.000 
ITERATION   1 : L=   77.6730628503 DL=  1.62e-03 (MAX-T)=   1.473 
ITERATION   2 : L=   77.6732037395 DL=  1.41e-04 (MAX-T)=   0.307 
ITERATION   3 : L=   77.6733686385 DL=  1.65e-04 (MAX-T)=   0.289 
ITERATION   4 : L=   77.6735411523 DL=  1.73e-04 (MAX-T)=   0.312 
ITERATION   5 : L=   77.6736858430 DL=  1.45e-04 (MAX-T)=   0.340 
ITERATION   6 : L=   77.6738483535 DL=  1.63e-04 (MAX-T)=   0.311 
ITERATION   7 : L=   77.6740274716 DL=  1.79e-04 (MAX-T)=   0.319 
ITERATION   8 : L=   77.6741940502 DL=  1.67e-04 (MAX-T)=   0.293 
ITERATION   9 : L=   77.6743522045 DL=  1.58e-04 (MAX-T)=   0.337 
ITERATION  10 : L=   77.6744539351 DL=  1.02e-04 (MAX-T)=   0.333 
ITERATION  11 : L=   77.6747215559 DL=  2.68e-04 (MAX-T)=   0.411 
ITERATION  12 : L=   77.6749292288 DL=  2.08e-04 (MAX-T)=   0.328 
ITERATION  13 : L=   77.6750917683 DL=  1.63e-04 (MAX-T)=   0.315 
ITERATION  14 : L=   77.6752319871 DL=  1.40e-04 (MAX-T)=   0.325 
ITERATION  15 : L=   77.6754192234 DL=  1.87e-04 (MAX-T)=   0.428 
ITERATION  16 : L=   77.6756130481 DL=  1.94e-04 (MAX-T)=   0.316 
ITERATION  17 : L=   77.6757697252 DL=  1.57e-04 (MAX-T)=   0.406 
ITERATION  18 : L=   77.6759260569 DL=  1.56e-04 (MAX-T)=   0.298 
ITERATION  19 : L=   77.6761377150 DL=  2.12e-04 (MAX-T)=   0.357 
ITERATION  20 : L=   77.6763064717 DL=  1.69e-04 (MAX-T)=   0.301 
ITERATION  21 : L=   77.6765035049 DL=  1.97e-04 (MAX-T)=   0.336 
ITERATION  22 : L=   77.6767389887 DL=  2.35e-04 (MAX-T)=   0.314 
ITERATION  23 : L=   77.6769798172 DL=  2.41e-04 (MAX-T)=   0.334 
ITERATION  24 : L=   77.6771870299 DL=  2.07e-04 (MAX-T)=   0.275 
ITERATION  25 : L=   77.6774180522 DL=  2.31e-04 (MAX-T)=   0.384 
ITERATION  26 : L=   77.6775777995 DL=  1.60e-04 (MAX-T)=   0.270 
ITERATION  27 : L=   77.6777620253 DL=  1.84e-04 (MAX-T)=   0.389 
ITERATION  28 : L=   77.6779056534 DL=  1.44e-04 (MAX-T)=   0.364 
ITERATION  29 : L=   77.6780174475 DL=  1.12e-04 (MAX-T)=   0.270 
ITERATION  30 : L=   77.6782273725 DL=  2.10e-04 (MAX-T)=   0.381 
ITERATION  31 : L=   77.6784237797 DL=  1.96e-04 (MAX-T)=   0.353 
ITERATION  32 : L=   77.6786342631 DL=  2.10e-04 (MAX-T)=   0.365 
ITERATION  33 : L=   77.6787788677 DL=  1.45e-04 (MAX-T)=   0.301 
ITERATION  34 : L=   77.6789615880 DL=  1.83e-04 (MAX-T)=   0.292 
ITERATION  35 : L=   77.6791630411 DL=  2.01e-04 (MAX-T)=   0.332 
ITERATION  36 : L=   77.6793697891 DL=  2.07e-04 (MAX-T)=   0.323 
ITERATION  37 : L=   77.6795497091 DL=  1.80e-04 (MAX-T)=   0.304 
ITERATION  38 : L=   77.6796974761 DL=  1.48e-04 (MAX-T)=   0.265 
ITERATION  39 : L=   77.6798888120 DL=  1.91e-04 (MAX-T)=   0.358 
ITERATION  40 : L=   77.6800502775 DL=  1.61e-04 (MAX-T)=   0.340 
ITERATION  41 : L=   77.6802816343 DL=  2.31e-04 (MAX-T)=   0.345 
ITERATION  42 : L=   77.6804487592 DL=  1.67e-04 (MAX-T)=   0.331 
ITERATION  43 : L=   77.6806277944 DL=  1.79e-04 (MAX-T)=   0.268 
ITERATION  44 : L=   77.6808596553 DL=  2.32e-04 (MAX-T)=   0.393 
ITERATION  45 : L=   77.6810405044 DL=  1.81e-04 (MAX-T)=   0.293 
ITERATION  46 : L=   77.6811812083 DL=  1.41e-04 (MAX-T)=   0.264 
ITERATION  47 : L=   77.6813478603 DL=  1.67e-04 (MAX-T)=   0.366 
ITERATION  48 : L=   77.6815575316 DL=  2.10e-04 (MAX-T)=   0.375 
ITERATION  49 : L=   77.6817642709 DL=  2.07e-04 (MAX-T)=   0.350 
ITERATION  50 : L=   77.6819638141 DL=  2.00e-04 (MAX-T)=   0.322 
ITERATION  51 : L=   77.6821532445 DL=  1.89e-04 (MAX-T)=   0.384 
ITERATION  52 : L=   77.6823144395 DL=  1.61e-04 (MAX-T)=   0.329 
ITERATION  53 : L=   77.6825337806 DL=  2.19e-04 (MAX-T)=   0.392 
ITERATION  54 : L=   77.6828056645 DL=  2.72e-04 (MAX-T)=   0.349 
ITERATION  55 : L=   77.6829330827 DL=  1.27e-04 (MAX-T)=   0.256 
ITERATION  56 : L=   77.6831745785 DL=  2.41e-04 (MAX-T)=   0.409 
ITERATION  57 : L=   77.6833702496 DL=  1.96e-04 (MAX-T)=   0.362 
ITERATION  58 : L=   77.6836324604 DL=  2.62e-04 (MAX-T)=   0.389 
ITERATION  59 : L=   77.6838294339 DL=  1.97e-04 (MAX-T)=   0.363 
ITERATION  60 : L=   77.6840178668 DL=  1.88e-04 (MAX-T)=   0.361 
ITERATION  61 : L=   77.6842050832 DL=  1.87e-04 (MAX-T)=   0.388 
ITERATION  62 : L=   77.6843694343 DL=  1.64e-04 (MAX-T)=   0.348 
ITERATION  63 : L=   77.6846317887 DL=  2.62e-04 (MAX-T)=   0.366 
ITERATION  64 : L=   77.6847964974 DL=  1.65e-04 (MAX-T)=   0.351 
ITERATION  65 : L=   77.6850203603 DL=  2.24e-04 (MAX-T)=   0.350 
ITERATION  66 : L=   77.6852344262 DL=  2.14e-04 (MAX-T)=   0.346 
ITERATION  67 : L=   77.6854309076 DL=  1.96e-04 (MAX-T)=   0.347 
ITERATION  68 : L=   77.6855869733 DL=  1.56e-04 (MAX-T)=   0.307 
ITERATION  69 : L=   77.6857781911 DL=  1.91e-04 (MAX-T)=   0.290 
ITERATION  70 : L=   77.6859210229 DL=  1.43e-04 (MAX-T)=   0.300 
ITERATION  71 : L=   77.6860885596 DL=  1.68e-04 (MAX-T)=   0.358 
ITERATION  72 : L=   77.6862383004 DL=  1.50e-04 (MAX-T)=   0.334 
ITERATION  73 : L=   77.6864133031 DL=  1.75e-04 (MAX-T)=   0.303 
ITERATION  74 : L=   77.6865283896 DL=  1.15e-04 (MAX-T)=   0.305 
ITERATION  75 : L=   77.6866819088 DL=  1.54e-04 (MAX-T)=   0.280 
ITERATION  76 : L=   77.6868151037 DL=  1.33e-04 (MAX-T)=   0.311 
ITERATION  77 : L=   77.6869543405 DL=  1.39e-04 (MAX-T)=   0.303 
ITERATION  78 : L=   77.6870560288 DL=  1.02e-04 (MAX-T)=   0.264 
ITERATION  79 : L=   77.6871567385 DL=  1.01e-04 (MAX-T)=   0.251 
ITERATION  80 : L=   77.6872613786 DL=  1.05e-04 (MAX-T)=   0.290 
ITERATION  81 : L=   77.6873591727 DL=  9.78e-05 (MAX-T)=   0.221 
ITERATION  82 : L=   77.6874541817 DL=  9.50e-05 (MAX-T)=   0.268 
ITERATION  83 : L=   77.6875184082 DL=  6.42e-05 (MAX-T)=   0.204 
ITERATION  84 : L=   77.6876184605 DL=  1.00e-04 (MAX-T)=   0.193 
ITERATION  85 : L=   77.6876828938 DL=  6.44e-05 (MAX-T)=   0.206 
ITERATION  86 : L=   77.6877508995 DL=  6.80e-05 (MAX-T)=   0.218 
ITERATION  87 : L=   77.6878119544 DL=  6.11e-05 (MAX-T)=   0.215 
ITERATION  88 : L=   77.6878630214 DL=  5.11e-05 (MAX-T)=   0.205 
ITERATION  89 : L=   77.6879236631 DL=  6.06e-05 (MAX-T)=   0.218 
ITERATION  90 : L=   77.6879624726 DL=  3.88e-05 (MAX-T)=   0.169 
ITERATION  91 : L=   77.6879993021 DL=  3.68e-05 (MAX-T)=   0.205 
ITERATION  92 : L=   77.6880519357 DL=  5.26e-05 (MAX-T)=   0.185 
ITERATION  93 : L=   77.6880930338 DL=  4.11e-05 (MAX-T)=   0.155 
ITERATION  94 : L=   77.6881334155 DL=  4.04e-05 (MAX-T)=   0.142 
ITERATION  95 : L=   77.6881773565 DL=  4.39e-05 (MAX-T)=   0.167 
ITERATION  96 : L=   77.6882143730 DL=  3.70e-05 (MAX-T)=   0.132 
ITERATION  97 : L=   77.6882392606 DL=  2.49e-05 (MAX-T)=   0.144 
ITERATION  98 : L=   77.6882634035 DL=  2.41e-05 (MAX-T)=   0.117 
ITERATION  99 : L=   77.6882927450 DL=  2.93e-05 (MAX-T)=   0.115 
ITERATION 100 : L=   77.6883114282 DL=  1.87e-05 (MAX-T)=   0.118 
ITERATION 101 : L=   77.6883346714 DL=  2.32e-05 (MAX-T)=   0.115 
ITERATION 102 : L=   77.6883495072 DL=  1.48e-05 (MAX-T)=   0.102 
ITERATION 103 : L=   77.6883620386 DL=  1.25e-05 (MAX-T)=   0.102 
ITERATION 104 : L=   77.6883765617 DL=  1.45e-05 (MAX-T)=   0.107 
ITERATION 105 : L=   77.6883881416 DL=  1.16e-05 (MAX-T)=   0.108 
ITERATION 106 : L=   77.6883985207 DL=  1.04e-05 (MAX-T)=   0.077 
ITERATION 107 : L=   77.6884151049 DL=  1.66e-05 (MAX-T)=   0.091 
ITERATION 108 : L=   77.6884268882 DL=  1.18e-05 (MAX-T)=   0.081 
ITERATION 109 : L=   77.6884357268 DL=  8.84e-06 (MAX-T)=   0.083 
ITERATION 110 : L=   77.6884450448 DL=  9.32e-06 (MAX-T)=   0.070 
ITERATION 111 : L=   77.6884527090 DL=  7.66e-06 (MAX-T)=   0.079 
ITERATION 112 : L=   77.6884601452 DL=  7.44e-06 (MAX-T)=   0.076 
ITERATION 113 : L=   77.6884676703 DL=  7.53e-06 (MAX-T)=   0.062 
ITERATION 114 : L=   77.6884726748 DL=  5.00e-06 (MAX-T)=   0.065 
ITERATION 115 : L=   77.6884777016 DL=  5.03e-06 (MAX-T)=   0.066 
ITERATION 116 : L=   77.6884831082 DL=  5.41e-06 (MAX-T)=   0.056 
ITERATION 117 : L=   77.6884879020 DL=  4.79e-06 (MAX-T)=   0.050 
ITERATION 118 : L=   77.6884928047 DL=  4.90e-06 (MAX-T)=   0.053 
ITERATION 119 : L=   77.6884960664 DL=  3.26e-06 (MAX-T)=   0.046 
ITERATION 120 : L=   77.6884992290 DL=  3.16e-06 (MAX-T)=   0.049 
ITERATION 121 : L=   77.6885028742 DL=  3.65e-06 (MAX-T)=   0.045 
ITERATION 122 : L=   77.6885060807 DL=  3.21e-06 (MAX-T)=   0.044 
ITERATION 123 : L=   77.6885085624 DL=  2.48e-06 (MAX-T)=   0.047 
ITERATION 124 : L=   77.6885106860 DL=  2.12e-06 (MAX-T)=   0.032 
ITERATION 125 : L=   77.6885132194 DL=  2.53e-06 (MAX-T)=   0.035 
ITERATION 126 : L=   77.6885151956 DL=  1.98e-06 (MAX-T)=   0.035 
ITERATION 127 : L=   77.6885176921 DL=  2.50e-06 (MAX-T)=   0.033 
MAXIMUM NO OF ITERATIONS EXCEEDED - LOCALIZATION NOT CONVERGED


--------------------------------------------------------------------------------
                    LOCALIZED MOLECULAR ORBITAL COMPOSITIONS
--------------------------------------------------------------------------------

The Mulliken populations for each LMO on each atom are computed
The LMO`s will be ordered according to atom index and type
  (A) Strongly localized MO`s have populations of >=0.950 on one atom
  (B) Two center bond orbitals have populations of >=0.850 on two atoms
  (C) Other MO`s are considered to be `delocalized`

FOUND  -   8 strongly local MO`s
       -   0 two center bond MO`s
       -   0 significantly delocalized MO`s

Rather strongly localized orbitals:
MO  17:   1Ar -   1.000270
MO  16:   1Ar -   1.000260
MO  15:   1Ar -   1.000917
MO  14:   1Ar -   1.000193
MO  13:   0Ar -   1.000837
MO  12:   0Ar -   1.000836
MO  11:   0Ar -   0.999979
MO  10:   0Ar -   0.999990
Localized MO's were stored in: AR2LD_3.2.proc0.loc

Localizing the core orbitals
Localization sum:    91.723573975 
------------------------------------------------------------------------------
                           ORCA ORBITAL LOCALIZATION
------------------------------------------------------------------------------

Input orbitals are from                  ... AR2LD_3.2.proc0.loc
Output orbitals are to                   ... AR2LD_3.2.proc0.loc
Max. number of iterations                ... 128
Localizations seeded randomly            ... on
Convergence tolerance                    ... 2.000e-07
Using relative localization threshhold   ... 1.000e-08
Threshold for strong local MOs           ... 9.500e-01
Threshold for bond MOs                   ... 8.500e-01
Operator                                 ... 0
Orbital range for localization           ... 0 to 9
Localization criterion                   ... FOSTER-BOYS
Doing the dipole integrals     ... o.k.
Entering Jacobi type localization:
Using Cholesky decomposition as initial guess.
Initial value of the localization sum :    91.419268
ITERATION   0 : L=   91.7208319658 DL=  3.02e-01 (MAX-T)=  45.000 
ITERATION   1 : L=   91.7235250427 DL=  2.69e-03 (MAX-T)=   7.598 
ITERATION   2 : L=   91.7235725632 DL=  4.75e-05 (MAX-T)=   0.979 
ITERATION   3 : L=   91.7235739560 DL=  1.39e-06 (MAX-T)=   0.176 
ITERATION   4 : L=   91.7235739751 DL=  1.92e-08 (MAX-T)=   0.019 
LOCALIZATION SUM CONVERGED


--------------------------------------------------------------------------------
                    LOCALIZED MOLECULAR ORBITAL COMPOSITIONS
--------------------------------------------------------------------------------

The Mulliken populations for each LMO on each atom are computed
The LMO`s will be ordered according to atom index and type
  (A) Strongly localized MO`s have populations of >=0.950 on one atom
  (B) Two center bond orbitals have populations of >=0.850 on two atoms
  (C) Other MO`s are considered to be `delocalized`

FOUND  -  10 strongly local MO`s
       -   0 two center bond MO`s
       -   0 significantly delocalized MO`s

Rather strongly localized orbitals:
MO   9:   1Ar -   1.000000
MO   8:   1Ar -   1.000026
MO   7:   1Ar -   1.000012
MO   6:   1Ar -   1.000021
MO   5:   1Ar -   1.000017
MO   4:   0Ar -   1.000012
MO   3:   0Ar -   1.000027
MO   2:   0Ar -   1.000018
MO   1:   0Ar -   1.000000
MO   0:   0Ar -   1.000019
Localized MO's were stored in: AR2LD_3.2.proc0.loc

Warning: reference  - re-canonicalizations have been set to INT 1 VIRT 1
Warning: internal orbitals are localized - no re-canonicalization of internal orbitals
Warning: UsePNO is turned on - no re-canonicalization of internal and virtual orbitals
Fock densities were made 
Making Fock matrix and reference energy:

--------------------------
CLOSED-SHELL FOCK OPERATOR
--------------------------

Time needed for Fock operator              ...            0.273 sec
Reference energy                           ...  -1053.598891806

--------------
DLPNO SETTINGS (2015 fully linear scaling implementation)
--------------

TCutMKN:           1.000e-03
TCutPAO:           1.000e-03
TCutPNO:           3.330e-07
TCutPNOSingles:    9.990e-09
TCutEN:            9.700e-01
TCutPAOExt:        1.000e-01
TCutPairs:         1.000e-05
TCutPre:           1.000e-07
TCutOSV:           1.000e-06
TCutDOij:          1.000e-05
TCutDO:            1.000e-02
TCutC:             1.000e-04
TCutCPAO:          1.000e-03
TCutCMO:           1.000e-03
TScaleDOMP2PreScr: 2.000e+00
TScaleMKNMP2PreScr:1.000e+01
TScalePNOMP2PreScr:1.000e+00
PAO overlap thresh 1.000e-08
Using PNOs for Singles Fock computation
Use new domains
Use fully linear algorithm

--------------------------
Mulliken population of the LMOs            ... ok
Performing proximity check                 ... No problems found
Calculating differential overlap integrals ... ok

------------------------
PRESCREENING OF HF PAIRS
------------------------

   .... Finished loop over pairs

                  ============================================
                    20 of   36 PAIRS WERE SKIPPED as HF PAIRS
                  ============================================

Total time spent in skipping HF pairs                 ...     0.000 sec
--------------------------
ELECTRON PAIR PRESCREENING
--------------------------

Dipole-based pair screening          .... used

   TCutDOij = 1.000000e-05
   TCutPre  = 1.000000e-07
   .... Finished loop over pairs
Total time spent in the prescreening                  ...     0.000 sec
sum of pair energies estimated for screened out pairs ...       0.000000000000 Eh
Thresholds for map construction and integral transformation for crude MP2:
   TCutMKN                    ...     1.0e-02
   TCutDO                     ...     2.0e-02
   TCutPairs                  ...     1.0e-05
   TCutPNO_CrudeMP2           ...     3.3e-07
   TCutPNOSingles_CrudeMP2    ...     1.0e-08
--------------------------------
LOCAL RI TRANSFORMATION (IAVPAO)
--------------------------------

Orbital window:      10 to 17
Number of PAOs:      54
Basis functions:     54 (22 shells)
Aux. functions:     184 (56 shells)
Use SHARK:           on
Have SHARK:         yes

Processing maps (0.0 sec)
Average map sizes:
   Aux shells -> MOs               8.0
   Aux shells -> PAOs             54.0
   MOs        -> AO shells        22.0
   PAOs       -> AO shells        22.0

Calculating integrals (0.0 sec, 0.609 MB)
Sorting integrals (0.0 sec, 0.607 MB)
Total time for the integral transformation: 0.0 sec
--------------------------------
INITIAL GUESS AND PNO GENERATION
--------------------------------

Populations of internal orbitals onto Fragments:
  10:      1.000    0.000  assigned to fragment   1
  11:      1.000    0.000  assigned to fragment   1
  12:      1.001    0.001  assigned to fragment   1
  13:      1.001    0.001  assigned to fragment   1
  14:      0.000    1.000  assigned to fragment   2
  15:      0.001    1.001  assigned to fragment   2
  16:      0.000    1.000  assigned to fragment   2
  17:      0.000    1.000  assigned to fragment   2

Summary assignment:
   4 orbitals assigned to fragment   1
   4 orbitals assigned to fragment   2

PNO truncation parameters                   .... 
    PAOOverlapThresh   =        1.000e-08

Pair selection                          .... 
  modified with fragment specific keywords
  Pairs will be selected according to these
  intra(inter)fragment cutoffs
  1 <-> 1
    Intrafragment pairs 1 <-> 1 neglected for CCSD
  1 <-> 2
    TCutPairs          =        1.000e-05
    TCutPNO            =        3.330e-07
    TCutMKN            =        1.000e-02
    TCutDO             =        2.000e-02
    TCutPNOSingles     =        9.990e-09
    TCutMP2Pairs       =        1.000e-06
  2 <-> 2
    Intrafragment pairs 2 <-> 2 neglected for CCSD

Type of local MP2 treatment                 .... semi-local MP2
Strategy for PNO selection                  .... occupation number selection
Pair density normalization                  .... MP2 norm
Spin component scaling                      .... not used

   .... Finished loop over pairs
Making pair pair interaction lists          ... done

                       ===========================
                         16 OF   24 PAIRS ARE KEPT CCSD PAIRS
                          0 OF   24 PAIRS ARE KEPT MP2 PAIRS
                          8 OF   24 PAIRS ARE SKIPPED
                       ===========================

Total time spent in the initial guess                 ...     0.029 sec
SL-MP2 correlation energy (all non-screened pairs)    ...      -0.001652847111 Eh

Initial PNO correlation energy                        ...      -0.001606572398 Eh
sum of pair energies prescreened and skipped MP2 pairs...       0.000000000000 Eh
sum of pair energies of crude MP2 skipped pairs only  ...       0.000000000000 Eh
sum of MP2 pair energies for pairs that were not kept ...       0.000000000000 Eh
sum of PNO error estimates for the kept pairs         ...      -0.000046274713 Eh
                                                          --------------------
sum of all corrections                                         -0.000046274713
Initial total correlation energy                               -0.001652847111
Thresholds for map construction and integral transformation for fine MP2 and CCSD(T) calculation:
   TCutMKN   ...     1.0e-03
   TCutDO    ...     1.0e-02
   TCutPairs ...     1.0e-05
   TCutCMO   ...     1.0e-03
   TCutCPAO  ...     1.0e-03

--------------------------------
LOCAL RI TRANSFORMATION (IAVPAO)
--------------------------------

Orbital window:      10 to 17
Number of PAOs:      54
Basis functions:     54 (22 shells)
Aux. functions:     184 (56 shells)
Use SHARK:           on
Have SHARK:         yes

Processing maps (0.0 sec)
Average map sizes:
   Aux shells -> MOs               8.0
   Aux shells -> PAOs             54.0
   MOs        -> AO shells        22.0
   PAOs       -> AO shells        22.0

Calculating integrals (0.0 sec, 0.609 MB)
Sorting integrals (0.0 sec, 0.607 MB)
Total time for the integral transformation: 0.0 sec
--------------------------------
INITIAL GUESS AND PNO GENERATION
--------------------------------

Populations of internal orbitals onto Fragments:
  10:      1.000    0.000  assigned to fragment   1
  11:      1.000    0.000  assigned to fragment   1
  12:      1.001    0.001  assigned to fragment   1
  13:      1.001    0.001  assigned to fragment   1
  14:      0.000    1.000  assigned to fragment   2
  15:      0.001    1.001  assigned to fragment   2
  16:      0.000    1.000  assigned to fragment   2
  17:      0.000    1.000  assigned to fragment   2

Summary assignment:
   4 orbitals assigned to fragment   1
   4 orbitals assigned to fragment   2

PNO truncation parameters                   .... 
    PAOOverlapThresh   =        1.000e-08

Pair selection                          .... 
  modified with fragment specific keywords
  Pairs will be selected according to these
  intra(inter)fragment cutoffs
  1 <-> 1
    Intrafragment pairs 1 <-> 1 neglected for CCSD
  1 <-> 2
    TCutPairs          =        1.000e-05
    TCutPNO            =        3.330e-07
    TCutMKN            =        1.000e-03
    TCutDO             =        1.000e-02
    TCutPNOSingles     =        9.990e-09
    TCutMP2Pairs       =        1.000e-06
  2 <-> 2
    Intrafragment pairs 2 <-> 2 neglected for CCSD

Type of local MP2 treatment                 .... semi-local MP2
Strategy for PNO selection                  .... occupation number selection
Pair density normalization                  .... MP2 norm
Spin component scaling                      .... not used

   .... Finished loop over pairs

 PNO Occupation Number Statistics: 
  | Av. % of trace(Dij) retained        ...  98.336030459484
  | sigma^2 in % of trace(Dij) retained ...   1.63e-01
  | Av. % of trace(Di) retained         ...  99.999955327414
  | sigma^2 in % of trace(Di) retained  ...   1.72e-10
 Distributions of % trace(Dij) recovered:
  |   [90.0, 99.0) ...    16 (100.0 % of all pairs)
 Distributions of % trace(Di) recovered :
  |       >= 99.9  ...     8 (100.0 % of all I-pairs )

Making pair pair interaction lists          ... done

                       ===========================
                         16 OF   24 PAIRS ARE KEPT
                       ===========================

Total time spent in the initial guess                 ...     0.032 sec
SL-MP2 correlation energy (all non-screened pairs)    ...      -0.001652847111 Eh

Initial PNO correlation energy                        ...      -0.001606572398 Eh
sum of pair energies estimated for screened out pairs ...       0.000000000000 Eh
sum of MP2 pair energies for pairs that were not kept ...       0.000000000000 Eh
sum of PNO error estimates for the kept pairs         ...      -0.000046274713 Eh
                                                          --------------------
sum of all corrections                                         -0.000046274713
Initial total correlation energy                               -0.001652847111
Thresholds for map construction and integral transformation for fine MP2 and CCSD(T) calculation:
   TCutMKN   ...     1.0e-03
   TCutDO    ...     1.0e-02
   TCutPairs ...     1.0e-05
   TCutCMO   ...     1.0e-03
   TCutCPAO  ...     1.0e-03

Time for aux screen maps:            0.000
Time for maps after fine MP2:            0.000
-----------------------------
LOCAL RI TRANSFORMATION (IJV)
-----------------------------

Orbital window:      10 to 17
Basis functions:     54 (22 shells)
Aux. functions:     184 (56 shells)
Use SHARK:           on

Processing maps (0.0 sec)
Average map sizes:
   Aux shells -> MOs(i)            8.0
   Aux shells -> MOs(j)            8.0
   MOs        -> AO shells        22.0

Calculating integrals NOTE: Switching SHARK to General Contraction for MDCI
      If that is not desired please turn off the PGCFlag in the input (%shark PGCFlag 0 end)
(0.2 sec, 0.092 MB)
Sorting integrals (0.0 sec, 0.090 MB)
Total time for the integral transformation: 0.2 sec
--------------------------------
LOCAL RI TRANSFORMATION (VABPAO)
--------------------------------

Number of PAOs:      54
Basis functions:     54 (22 shells)
Aux. functions:     184 (56 shells)
Use SHARK:           on

Processing maps (0.0 sec)
Average map sizes:
   Aux shells -> PAOs             54.0
   PAOs       -> AO shells        22.0

Calculating integrals NOTE: Switching SHARK to General Contraction for MDCI
      If that is not desired please turn off the PGCFlag in the input (%shark PGCFlag 0 end)
(0.3 sec, 4.096 MB)
Finished


-------------------------------------
Pair Pair Term precalculation with     
RI-(ij|mn) and (im|jn) transformation  
ON THE FLY                             
-------------------------------------

   IBatch   1 (of   1)              ... done (    0.000 sec)
Total EXT                           ...           0.000 sec

IAVPA Available = YES
VABPAO Available= YES
IJV Available   = YES
IJK Available   = NO
PNO3i Available = YES
PNO3j Available = YES
PNO4 Available  = YES
---------------------
RI-PNO TRANSFORMATION
---------------------

Total Number of PNOs                   ...   139
Average number of PNOs per pair        ...     8
Maximal number of PNOs per pair        ...    11
   #pairs with  1 -  5 PNOs   :    0
   #pairs with  6 - 10 PNOs   :   14
   #pairs with 11 - 15 PNOs   :    2
   #pairs with 16 - 20 PNOs   :    0
   #pairs with 21 - 25 PNOs   :    0
   #pairs with 26 - 30 PNOs   :    0
   #pairs with 31 - 35 PNOs   :    0
   #pairs with 36 - 40 PNOs   :    0
   #pairs with 41 - 45 PNOs   :    0
   #pairs with 46 - 50 PNOs   :    0

Generation of (ij|ab)[P] integrals            ... on
Generation of (ia|bc)[P],(ja|bc)[P] integrals ... on
Storage of 3 and 4 external integrals         ... on
Generation of ALL (ka|bc)[P] integrals        ... on
Keep RI integrals in memory                   ... off

Ibatch:  1 (of  1)
Starting 2-4 index PNO integral generation ... done

Timings:
Total PNO integral transformation time     ...          0.030 sec
Size of the 3-external file                ...         0 MB
Size of the 4-external file                ...         0 MB
Size of the IKJL file                      ...         0 MB
Size of the all 3-external file            ...         0 MB
Size of the 1-external file                ...         0 MB

Making pair/pair overlap matrices          ... done (    0.007 sec)
Size of the pair overlap file              ... 0 MB
Redoing the guess amplitudes               ... done (    0.000 sec)

-------------------------
FINAL STARTUP INFORMATION
-------------------------

E(0)                                       ...  -1053.598891806
E(SL-MP2)                                  ...     -0.001652847
E(SL-MP2) including corrections            ...     -0.001652847
Initial E(tot)                             ...  -1053.600544653
<T|T>                                      ...      0.000602563
Number of pairs included                   ... 16
Total number of pairs                      ... 36

------------------------------------------------
                  RHF COUPLED CLUSTER ITERATIONS
------------------------------------------------

Number of PNO amplitudes to be optimized   ...         1223
Number of non-PNO amplitudes               ...        20736
Untruncated number of regular amplitudes   ...        46656

Iter       E(tot)           E(Corr)          Delta-E          Residual     Time
  0  -1053.600544409     -0.001606328      0.000046519      0.000517483    0.02
                           *** Turning on DIIS ***
  1  -1053.600588270     -0.001650190     -0.000043861      0.000173388    0.01
  2  -1053.600602845     -0.001664765     -0.000014575      0.000033587    0.01
  3  -1053.600604697     -0.001666617     -0.000001852      0.000005723    0.01
  4  -1053.600604750     -0.001666670     -0.000000053      0.000001226    0.01
  5  -1053.600604733     -0.001666652      0.000000017      0.000000278    0.01
               --- The Coupled-Cluster iterations have converged ---

----------------------
COUPLED CLUSTER ENERGY
----------------------

E(0)                                       ...  -1053.598891806
E(CORR)(strong-pairs)                      ...     -0.001666652
E(CORR)(weak-pairs)                        ...     -0.000046275
E(CORR)(corrected)                         ...     -0.001712927
E(TOT)                                     ...  -1053.600604733
Singles Norm <S|S>**1/2                    ...      0.001178734  
T1 diagnostic                              ...      0.000294684  

------------------
LARGEST AMPLITUDES
------------------
  15-> 18  13-> 18       0.001722
  15-> 18  12-> 18       0.001722
  17-> 19  13-> 19       0.001583
  16-> 19  12-> 19       0.001453
  17-> 23  13-> 19       0.001426
  16-> 23  12-> 19       0.001319
  14-> 19  12-> 19       0.001311
  15-> 18  11-> 18       0.001304
  15-> 18  10-> 18       0.001292
  17-> 18  13-> 18       0.001197
  14-> 23  12-> 19       0.001193
  15-> 18  12-> 22       0.001177
  15-> 19  10-> 22       0.001175
  15-> 19  11-> 22       0.001153
  15-> 18  13-> 22       0.001139
  17-> 19  13-> 23       0.001128


 ===========================================================
         LOCAL ENERGY DECOMPOSITION FOR DLPNO-CC METHODS
 ===========================================================

Maximum Iterations for the Localization .. 600
Tolerance for the Localization          ..  1.00e-06
Number of fragments = 2
Fragment  1:  0
Fragment  2:  1

Populations of internal orbitals onto Fragments:
   0:      1.000    0.000  assigned to fragment   1
   1:      1.000    0.000  assigned to fragment   1
   2:      1.000    0.000  assigned to fragment   1
   3:      1.000    0.000  assigned to fragment   1
   4:      1.000    0.000  assigned to fragment   1
   5:      0.000    1.000  assigned to fragment   2
   6:      0.000    1.000  assigned to fragment   2
   7:      0.000    1.000  assigned to fragment   2
   8:      0.000    1.000  assigned to fragment   2
   9:      0.000    1.000  assigned to fragment   2
  10:      1.000    0.000  assigned to fragment   1
  11:      1.000    0.000  assigned to fragment   1
  12:      1.001    0.001  assigned to fragment   1
  13:      1.001    0.001  assigned to fragment   1
  14:      0.000    1.000  assigned to fragment   2
  15:      0.001    1.001  assigned to fragment   2
  16:      0.000    1.000  assigned to fragment   2
  17:      0.000    1.000  assigned to fragment   2

Summary assignment:
   9 orbitals assigned to fragment   1
   9 orbitals assigned to fragment   2


--------------------------------
CORRELATION ENERGY DECOMPOSITION
--------------------------------


--------------------------------------------------
INTER- vs INTRA-FRAGMENT CORRELATION ENERGIES (Eh)
--------------------------------------------------

                                   Fragment   1            Fragment   2            
                         ----------------------  ----------------------  
Intra strong pairs               0.000000000000         0.000000000000  sum=        0.000000000000
Intra weak pairs                 0.000000000000         0.000000000000  sum=        0.000000000000
Singles contribution            -0.000000000189        -0.000000000195  sum=       -0.000000000384
                         ----------------------  ----------------------  
                                -0.000000000189        -0.000000000195  sum=       -0.000000000384


Interaction correlation for Fragments   2 and   1:
--------------------------------------------------
Inter strong pairs               -0.001666651921 (   -1.046 kcal/mol)
Inter weak pairs                 -0.000046274713 (   -0.029 kcal/mol)
                          ----------------------
Total interaction                -0.001712926634 (   -1.075 kcal/mol)



Sum of INTRA-fragment correlation energies  =        -0.000000000384
Sum of INTER-fragment correlation energies  =        -0.001712926634
                                              ---------------------
Total correlation energy                    =        -0.001712927018

---------------------------------------------
DECOMPOSITION OF CCSD STRONG PAIRS INTO      
    DOUBLE EXCITATION TYPES (Eh)             
---------------------------------------------

Foster-Boys localization is used for localizing PNOs

Intra fragment contributions: 
INTRA Fragment 1                        0.000000000 
INTRA Fragment 2                        0.000000000 

Charge transfer contributions: 
Charge Transfer 1 to 2                 -0.000104067 
Charge Transfer 2 to 1                 -0.000085901 

Dispersion contributions: 
Dispersion  2,1                        -0.001476684 

Singles contributions:                   
Singles energy                         -0.000000000 

#Time for LED analysis ..       0.0 (sec)



--------------------------------------------------------------------------------
                                    TIMINGS
--------------------------------------------------------------------------------


Total execution time                   ...        1.555 sec

Localization of occupied MO's          ...        0.089 sec (  5.7%)
Fock Matrix Formation                  ...        0.273 sec ( 17.6%)
Global overlap, Fock, MKN matrices     ...        0.119 sec (  7.7%)
Differential overlap integrals         ...        0.096 sec (  6.2%)
Organizing maps                        ...        0.001 sec (  0.1%)
RI 3-index integral generations        ...        0.573 sec ( 36.8%)
RI-PNO integral transformation         ...        0.039 sec (  2.5%)
Initial Guess                          ...        0.064 sec (  4.1%)
DIIS Solver                            ...        0.002 sec (  0.1%)
State Vector Update                    ...        0.000 sec (  0.0%)
Sigma-vector construction              ...        0.070 sec (  4.5%)
  <D|H|D>(0-ext)                       ...        0.006 sec (  9.3% of sigma)
  <D|H|D>(4-ext)                       ...        0.002 sec (  2.6% of sigma)
  <D|H|D>(4-ext-corr)                  ...        0.005 sec (  7.8% of sigma)
  CCSD doubles correction              ...        0.002 sec (  2.3% of sigma)
  <S|H|S>                              ...        0.011 sec ( 16.3% of sigma)
  <S|H|D>(1-ext)                       ...        0.006 sec (  9.3% of sigma)
  <S|H|D>(3-ext)                       ...        0.001 sec (  1.6% of sigma)
  Fock-dressing                        ...        0.024 sec ( 34.3% of sigma)
  Singles amplitudes                   ...        0.002 sec (  2.3% of sigma)
  (ik|jl)-dressing                     ...        0.005 sec (  7.2% of sigma)
  (ij|ab),(ia|jb)-dressing             ...        0.001 sec (  1.5% of sigma)
Local Energy Decomposition             ...        0.009 sec (  0.6% of ALL)


Maximum memory used throughout the entire MDCI-calculation: 50.6 MB
----------------------------   ----------------
Inter-fragment dispersion       -0.001522958
----------------------------   ----------------


-------------------------   --------------------
FINAL SINGLE POINT ENERGY     -1053.600414763830 
-------------------------   --------------------


------------------------------------------------------------------------------
                              ORCA PROPERTY CALCULATIONS
------------------------------------------------------------------------------

GBWName                                 ... AR2LD_3.2.gbw
Number of atoms                         ...      2
Number of basis functions               ...    100
Max core memory                         ...   1024 MB

Electric properties:
Dipole moment                           ... YES
Quadrupole moment                       ...  NO
Static polarizability (Dipole/Dipole)   ...  NO
Static polarizability (Dipole/Quad.)    ...  NO
Static polarizability (Quad./Quad.)     ...  NO
Static polarizability (Velocity)        ...  NO

Atomic electric properties:
Dipole moment                           ...  NO
Quadrupole moment                       ...  NO
Static polarizability                   ...  NO

Choice of electric origin               ... Center of mass
Position of electric origin             ...     3.023562     0.000000     0.000000

General magnetic properties:
Magnetizability                         ...  NO

EPR properties:
g-Tensor (aka g-matrix)                 ...  NO
Zero-Field splitting spin-orbit         ...  NO
Zero-field splitting spin-spin          ...  NO
Hyperfine couplings                     ...  NO (   0 nuclei)
Quadrupole couplings                    ...  NO (   0 nuclei)
Contact density                         ...  NO (   0 nuclei)

NMR properties:
Chemical shifts                         ...  NO (   0 nuclei)
Spin-rotation constants                 ...  NO (   0 nuclei)
Spin-spin couplings                     ...  NO (   0 nuclei,    0 pairs)

Choice of magnetic origin               ... GIAO
Position of magnetic origin             ...     0.000000     0.000000     0.000000

Properties with geometric perturbations:
SCF Hessian                             ...  NO
IR spectrum                             ...  NO
VCD spectrum                            ...  NO
X-ray spectroscopy properties:
SCF XES/XAS/RIXS spectra                ...  NO


-------------
DIPOLE MOMENT
-------------

Method             : SCF
Type of density    : Electron Density
Multiplicity       :   1
Irrep              :   0
Energy             : -1053.5988918055909380 Eh
Relativity type    : 
Basis              : AO
                                X                 Y                 Z
Electronic contribution:     -0.000000000       0.000000000       0.000000000
Nuclear contribution   :      0.000000000       0.000000000       0.000000000
                        -----------------------------------------
Total Dipole Moment    :     -0.000000000       0.000000000       0.000000000
                        -----------------------------------------
Magnitude (a.u.)       :      0.000000000
Magnitude (Debye)      :      0.000000000



--------------------
Rotational spectrum 
--------------------
 
Rotational constants in cm-1:             0.000000             0.082420             0.082420 
Rotational constants in MHz :             0.000000          2470.885392          2470.885392 

Dipole components along the rotational axes: 
x,y,z [a.u.] :    -0.000000     0.000000     0.000000 
x,y,z [Debye]:    -0.000000     0.000000     0.000000 

 

Dipole moment calculation done in   0.0 sec 

Maximum memory used throughout the entire PROP-calculation: 6.7 MB

--------------------------------
SUGGESTED CITATIONS FOR THIS RUN
--------------------------------

Below you find a list of papers that are relevant to this ORCA run
We neither can nor want to force you to cite these papers, but we appreciate if you do
You receive ORCA, which is the product of decades of hard work by many enthusiastic individuals, for free
The only thing we kindly ask in return is that you cite our papers,
We deeply appreciate it, if you show your appreciation for ORCA by not just citing the generic ORCA reference.

Please note that relegating all ORCA citations to the supporting information does *not* help us.
SI sections are not indexed - citations you put there will not count into any citation statistics
But we need these citations in order to attract the funding resources that allow us to do what we are doing

Therefore, if you are a happy ORCA user, please consider citing a few of the papers listed below in the main body of your paper

In addition to the list printed below, the program has created the file AR2LD_3.2.bibtex that contains the list in bibtex format
You can import this file easily into all common literature databanks and citation aid programs


List of essential papers. We consider these as the minimum necessary citations

  1. Neese,F.
     Software update: the ORCA program system, version 5.0
     WIRES Comput. Molec. Sci., 2022 12(1)e1606
     doi.org/10.1002/wcms.1606

List of papers to cite with high priority. The work reported in these papers was absolutely
necessary for this run to complete.
Our perspective: the developers of density functionals and basis sets usually get cited in chemistry papers
Good! But without the algorithms to do something with them, the functionals or basis sets would not do anything.
Hence, in our opinion, the algorithm design and method developments papers are equally worthy of getting cited

  1. Neese,F.; Hansen,A.; Liakos,D.G.
     Efficient and accurate approximations to the local coupled cluster singles doubles method using a truncated pair natural orbital basis
     J. Chem. Phys., 2009 131 064103
     doi.org/10.1063/1.3173827
  2. Neese,F.; Wennmohs,F.; Hansen,A.
     Efficient and accurate local approximations to coupled-electron pair approaches: An attempt to revive the pair natural orbital method
     J. Chem. Phys., 2009 130 114108
     doi.org/10.1063/1.3086717
  3. Riplinger,C.; Neese,F.
     An efficient and near linear scaling pair natural orbital based local coupled cluster method
     J. Chem. Phys., 2013 138(3)Art. No. 034106
     doi.org/10.1063/1.4773581
  4. Datta,D.; Kossmann,S.; Neese,F.
     Analytic energy derivatives for the calculation of the first-order molecular properties using the domain-based local pair-natural orbital coupled-cluster theory
     J. Chem. Phys., 2016 145 
     doi.org/10.1063/1.4962369
  5. Riplinger,C.; Pinski,P.; Becker,U.; Valeev,E.F.; Neese,F.
     Sparse maps-A systematic infrastructure for reduced-scaling electronic structure methods. II. Linear scaling domain based pair natural orbital coupled cluster theory
     J. Chem. Phys., 2016 144 
     doi.org/10.1063/1.4939030
  6. Schneider,W.B.; Bistoni,G.; Sparta,M.; Saitow,M.; Riplinger,C.; Auer,A.A.; Neese,F.
     Decomposition of Intermolecular Interaction Energies within the Local Pair Natural Orbital Coupled Cluster Framework
     J. Theo. Comp. Chem., 2016 12 4778-4792
     doi.org/10.1021/acs.jctc.6b00523
  7. Bistoni,G.; Riplinger,C.; Minenkov,Y.; Cavallo,L.; Auer,A.A.; Neese,F.
     Treating Subvalence Correlation Effects in Domain Based Pair Natural Orbital Coupled Cluster Calculations: An Out-of-the-Box Approach
     J. Theo. Comp. Chem., 2017 13 3220-3227
     doi.org/10.1021/acs.jctc.7b00352
  8. Altun,A.; Neese,F.; Bistoni,G.
     HFLD: A Nonempirical London Dispersion-Corrected Hartree-Fock Method for the Quantification and Analysis of Noncovalent Interaction Energies of Large Molecular Systems
     J. Chem. Theory Comput., 2019 15 5894-5907
     doi.org/10.1021/acs.jctc.9b00425
  9. Neese,F.
     The SHARK Integral Generation and Digestion System
     J. Comp. Chem., 2022  1-16
     doi.org/10.1002/jcc.26942
 10. Altun,A.; Neese,F.; Bistoni,G.
     Open-Shell Variant of the London Dispersion-Corrected Hartree–Fock Method (HFLD) for the Quantification and Analysis of Noncovalent Interaction Energies
     J. Chem. Theory Comput., 2022 XX XXXX-XXXX
     doi.org/10.1021/acs.jctc.1c01295

List of suggested additional citations. These are papers that are important in the 'surrounding' of 
of this run, or papers that preceded the highly important papers. If you like your results we are grateful for a citation.

  1. Neese,F.
     The ORCA program system
     WIRES Comput. Molec. Sci., 2012 2(1)73-78
     doi.org/10.1002/wcms.81
  2. Neese,F.
     Software update: the ORCA program system, version 4.0
     WIRES Comput. Molec. Sci., 2018 8(1)1-6
     doi.org/10.1002/wcms.1327
  3. Neese,F.; Wennmohs,F.; Becker,U.; Riplinger,C.
     The ORCA quantum chemistry program package
     J. Chem. Phys., 2020 152 Art. No. L224108
     doi.org/10.1063/5.0004608
  4. Bistoni,G.
     Finding chemical concepts in the Hilbert space: Coupled cluster analyses of noncovalent interactions
     WIRES Comput. Molec. Sci., 2020 10(3)e1442
     doi.org/10.1002/wcms.1442

List of optional additional citations

  1. Neese,F.
     Approximate second-order SCF convergence for spin unrestricted wavefunctions
     Chem. Phys. Lett., 2000 325(1-3)93-98
     doi.org/10.1016/s0009-2614(00)00662-x

Timings for individual modules:

Sum of individual times          ...        4.204 sec (=   0.070 min)
Startup calculation              ...        1.035 sec (=   0.017 min)  24.6 %
SCF iterations                   ...        1.436 sec (=   0.024 min)  34.2 %
Property integrals               ...        0.056 sec (=   0.001 min)   1.3 %
Property calculations            ...        0.087 sec (=   0.001 min)   2.1 %
MDCI module                      ...        1.590 sec (=   0.026 min)  37.8 %
                             ****ORCA TERMINATED NORMALLY****
TOTAL RUN TIME: 0 days 0 hours 0 minutes 4 seconds 261 msec
