
                                 *****************
                                 * O   R   C   A *
                                 *****************

                                            #,                                       
                                            ###                                      
                                            ####                                     
                                            #####                                    
                                            ######                                   
                                           ########,                                 
                                     ,,################,,,,,                         
                               ,,#################################,,                 
                          ,,##########################################,,             
                       ,#########################################, ''#####,          
                    ,#############################################,,   '####,        
                  ,##################################################,,,,####,       
                ,###########''''           ''''###############################       
              ,#####''   ,,,,##########,,,,          '''####'''          '####       
            ,##' ,,,,###########################,,,                        '##       
           ' ,,###''''                  '''############,,,                           
         ,,##''                                '''############,,,,        ,,,,,,###''
      ,#''                                            '''#######################'''  
     '                                                          ''''####''''         
             ,#######,   #######,   ,#######,      ##                                
            ,#'     '#,  ##    ##  ,#'     '#,    #''#        ,####,   ,####,        
            ##       ##  ##   ,#'  ##            #'  '#       #'       #'  '#        
            ##       ##  #######   ##           ,######,      #####,   #    #        
            '#,     ,#'  ##    ##  '#,     ,#' ,#      #,     #,   #   #,  ,#        
             '#######'   ##     ##  '#######'  #'      '#     '####' # '####'        



                #########################################################
                #                        -***-                          #
                #          Department of theory and spectroscopy        #
                #                                                       #
                #                      Frank Neese                      #
                #                                                       #
                #     Directorship, Architecture, Infrastructure        #
                #                    SHARK, DRIVERS                     #
                #        Core code/Algorithms in most modules           #
                #                                                       #
                #        Max Planck Institute fuer Kohlenforschung      #
                #                Kaiser Wilhelm Platz 1                 #
                #                 D-45470 Muelheim/Ruhr                 #
                #                      Germany                          #
                #                                                       #
                #                  All rights reserved                  #
                #                        -***-                          #
                #########################################################


                         Program Version 6.0.0  -   RELEASE  -


 With contributions from (in alphabetic order):
   Daniel Aravena         : Magnetic Suceptibility
   Michael Atanasov       : Ab Initio Ligand Field Theory (pilot matlab implementation)
   Alexander A. Auer      : GIAO ZORA, VPT2 properties, NMR spectrum
   Ute Becker             : All parallelization in ORCA, NUMFREQ, NUMCALC
   Giovanni Bistoni       : ED, misc. LED, open-shell LED, HFLD
   Martin Brehm           : Molecular dynamics
   Dmytro Bykov           : pre 5.0 version of the SCF Hessian
   Marcos Casanova-Páez   : Triplet and SCS-CIS(D). UHF-(DLPNO)-IP/EA/STEOM-CCSD. UHF-CVS-IP/STEOM-CCSD
   Vijay G. Chilkuri      : MRCI spin determinant printing, contributions to CSF-ICE
   Pauline Colinet        : FMM embedding
   Dipayan Datta          : RHF DLPNO-CCSD density
   Achintya Kumar Dutta   : EOM-CC, STEOM-CC
   Nicolas Foglia         : Exact transition moments, OPA infrastructure, MCD improvements
   Dmitry Ganyushin       : Spin-Orbit,Spin-Spin,Magnetic field MRCI
   Miquel Garcia          : C-PCM and meta-GGA Hessian, CCSD/C-PCM, Gaussian charge scheme
   Tiago L. C. Gouveia    : GS-ROHF, GS-ROCIS
   Yang Guo               : DLPNO-NEVPT2, F12-NEVPT2, CIM, IAO-localization
   Andreas Hansen         : Spin unrestricted coupled pair/coupled cluster methods
   Ingolf Harden          : AUTO-CI MPn and infrastructure 
   Benjamin Helmich-Paris : MC-RPA, TRAH-(SCF,CASSCF), AVAS, COSX integrals, SCF dyn. polar.
   Lee Huntington         : MR-EOM, pCC
   Robert Izsak           : Overlap fitted RIJCOSX, COSX-SCS-MP3, EOM
   Riya Kayal             : Wick's Theorem for AUTO-CI, AUTO-CI UHF-CCSDT
   Emily Kempfer          : AUTO-CI, RHF CISDT and CCSDT
   Christian Kollmar      : KDIIS, OOCD, Brueckner-CCSD(T), CCSD density, CASPT2, CASPT2-K, improved NEVPT2
   Axel Koslowski         : Symmetry handling
   Simone Kossmann        : Meta GGA functionals, TD-DFT gradient, OOMP2, (MP2 Hessian; deprecated post 5.0)
   Lucas Lang             : DCDCAS
   Marvin Lechner         : AUTO-CI (C++ implementation), FIC-MRCC
   Spencer Leger          : CASSCF response
   Dagmar Lenk            : GEPOL surface, SMD, ORCA-2-JSON
   Dimitrios Liakos       : Extrapolation schemes; Compound Job, initial MDCI parallelization
   Dimitrios Manganas     : Further ROCIS development; embedding schemes. LFT, Crystal Embedding
   Dimitrios Pantazis     : SARC Basis sets
   Anastasios Papadopoulos: AUTO-CI, single reference methods and gradients
   Taras Petrenko         : pre 6.0 DFT Hessian and TD-DFT gradient, (ASA, deprecated), ECA, 1-Electron XAS/XES, NRVS
   Peter Pinski           : DLPNO-MP2, DLPNO-MP2 Gradient
   Christoph Reimann      : Effective Core Potentials
   Marius Retegan         : Local ZFS, SOC
   Christoph Riplinger    : Optimizer, TS searches, QM/MM, DLPNO-CCSD(T), (RO)-DLPNO pert. Triples
   Michael Roemelt        : Original ROCIS implementation
   Masaaki Saitow         : Open-shell DLPNO-CCSD energy and density
   Barbara Sandhoefer     : DKH picture change effects
   Kantharuban Sivalingam : CASSCF convergence/infrastructure, NEVPT2 and variants, FIC-MRCI
   Bernardo de Souza      : ESD, SOC TD-DFT
   Georgi Stoychev        : AutoAux, RI-MP2 NMR, DLPNO-MP2 response, X2C
   Van Anh Tran           : RI-MP2 g-tensors
   Willem Van den Heuvel  : Paramagnetic NMR
   Zikuan Wang            : NOTCH, Electric field optimization 
   Frank Wennmohs         : Technical directorship and infrastructure
   Hang Xu                : AUTO-CI-Response properties 


 We gratefully acknowledge several colleagues who have allowed us to
 interface, adapt or use parts of their codes:
   Stefan Grimme, W. Hujo, H. Kruse, P. Pracht,  : VdW corrections, initial TS optimization,
                  C. Bannwarth, S. Ehlert,         DFT functionals, gCP, sTDA/sTD-DF
                  L. Wittmann, M. Mueller
   Ed Valeev, F. Pavosevic, A. Kumar             : LibInt (2-el integral package), F12 methods
   Garnet Chan, S. Sharma, J. Yang, R. Olivares  : DMRG
   Ulf Ekstrom                                   : XCFun DFT Library
   Mihaly Kallay                                 : mrcc  (arbitrary order and MRCC methods)
   Frank Weinhold                                : gennbo (NPA and NBO analysis)
   Simon Mueller                                 : openCOSMO-RS
   Christopher J. Cramer and Donald G. Truhlar   : smd solvation model
   Lars Goerigk                                  : TD-DFT with DH, B97 family of functionals
   V. Asgeirsson, H. Jonsson                     : NEB implementation
   FAccTs GmbH                                   : IRC, NEB, NEB-TS, DLPNO-Multilevel, CI-OPT
                                                   MM, QMMM, 2- and 3-layer-ONIOM, Crystal-QMMM,
                                                   LR-CPCM, SF, NACMEs, symmetry and pop. for TD-DFT,
                                                   nearIR, NL-DFT gradient (VV10), updates on ESD,
                                                   ML-optimized integration grids, MBIS, APM,
                                                   GOAT, DOCKER, SOLVATOR, interface openCOSMO-RS
   S Lehtola, MJT Oliveira, MAL Marques          : LibXC Library
   Liviu Ungur et al                             : ANISO software


 Your calculation uses the libint2 library for the computation of 2-el integrals
 For citations please refer to: http://libint.valeyev.net

 Your ORCA version has been built with support for libXC version: 6.2.2
 For citations please refer to: https://libxc.gitlab.io

 This ORCA versions uses:
   CBLAS   interface :  Fast vector & matrix operations
   LAPACKE interface :  Fast linear algebra routines
   SCALAPACK package :  Parallel linear algebra routines
   Shared memory     :  Shared parallel matrices
   BLAS/LAPACK       :  OpenBLAS 0.3.27  USE64BITINT DYNAMIC_ARCH NO_AFFINITY Haswell SINGLE_THREADED
        Core in use  :  Haswell
   Copyright (c) 2011-2014, The OpenBLAS Project


================================================================================

----- Orbital basis set information -----
Your calculation utilizes the basis: aug-cc-pVDZ 
    H, B-Ne : Obtained from the ccRepo (grant-hill.group.shef.ac.uk/ccrepo) Feb. 2017
              R. A. Kendall, T. H. Dunning, Jr., R. J. Harrison, J. Chem. Phys. 96, 6796 (1992)
         He : Obtained from the ccRepo (grant-hill.group.shef.ac.uk/ccrepo) Feb. 2017
              D. E. Woon, T. H. Dunning, Jr., J. Chem. Phys. 100, 2975 (1994)
  Li-Be, Na : Obtained from the ccRepo (grant-hill.group.shef.ac.uk/ccrepo) Feb. 2017
              B. P. Prascher, D. E. Woon, K. A. Peterson, T. H. Dunning, Jr., A. K. Wilson, Theor. Chem. Acc. 128, 69 (2011)
         Mg : Obtained from the Peterson Research Group Website (tyr0.chem.wsu.edu/~kipeters) Feb. 2017
              B. P. Prascher, D. E. Woon, K. A. Peterson, T. H. Dunning, Jr., A. K. Wilson, Theor. Chem. Acc. 128, 69 (2011)
      Al-Ar : Obtained from the ccRepo (grant-hill.group.shef.ac.uk/ccrepo) Feb. 2017
              D. E. Woon, T. H. Dunning, Jr., J. Chem. Phys. 98, 1358 (1993)
      Sc-Zn : Obtained from the ccRepo (grant-hill.group.shef.ac.uk/ccrepo) Feb. 2017
              N. B. Balabanov, K. A. Peterson, J. Chem. Phys. 123, 064107 (2005)
              N. B. Balabanov, K. A. Peterson, J. Chem. Phys. 125, 074110 (2006)
      Ga-Kr : Obtained from the ccRepo (grant-hill.group.shef.ac.uk/ccrepo) Feb. 2017
              A. K. Wilson, D. E. Woon, K. A. Peterson, T. H. Dunning, Jr., J. Chem. Phys. 110, 7667 (1999)

----- AuxC basis set information -----
Your calculation utilizes the auxiliary basis: aug-cc-pVDZ/C 
  H-He, B, Ne, Al-Ar, Ga-Ge, Se-Br : Obtained from the EMSL Basis Set Exchange (bse.pnl.gov) Feb. 2017
                                     F. Weigend, A. Kohn, C. Hattig, J. Chem. Phys. 116, 3175 (2002)
                            Be, Mg : Obtained from the TURBOMOLE 7.0 basis set library
                                     C. Haettig, Phys. Chem. Chem. Phys. 7, 59 (2005)
                               C-F : Obtained from the EMSL Basis Set Exchange (bse.pnl.gov) Feb. 2017
                                     C. Haettig, Phys. Chem. Chem. Phys. 7, 59 (2005)
                                     F. Weigend, A. Kohn, C. Hattig, J. Chem. Phys. 116, 3175 (2002)
                                As : Obtained from the EMSL Basis Set Exchange (bse.pnl.gov) Feb. 2017
                                     C. Haettig, G. Schmitz, J. Kossmann, Phys. Chem. Chem. Phys. 14, 6549 (2012)
                                Kr : Obtained from the TURBOMOLE 7.0 basis set library
                                     F. Weigend, A. Kohn, C. Hattig, J. Chem. Phys. 116, 3175 (2002)
                                     S function revised in Sep. 2009

================================================================================
                                        WARNINGS
                       Please study these warnings very carefully!
================================================================================


WARNING: Post HF methods need fully converged wavefunctions
  ===> : Setting SCFConvForced true
         You can overwrite this default with %scf ConvForced false 


================================================================================
                                       INPUT FILE
================================================================================
NAME = AR3LD_3.6_3.2_3.2.inp
|  1> # MP2 scan of the potential energy curve for Ar...Ar
|  2>                 ! HFLD aug-cc-pvdz aug-cc-pvdz/C verytightscf
|  3>                 *xyz 0 1
|  4>                 Ar(1)	0    0	0.00000000000000
|  5>                 Ar(2)	3.2	0    0.00000000000000
|  6>                 Ar(3)	1.1750000000000005	2.9764702249476644    0.00000000000000
|  7>                 **                         ****END OF INPUT****
================================================================================

                       ****************************
                       * Single Point Calculation *
                       ****************************

---------------------------------
CARTESIAN COORDINATES (ANGSTROEM)
---------------------------------
  Ar     0.000000    0.000000    0.000000
  Ar     3.200000    0.000000    0.000000
  Ar     1.175000    2.976470    0.000000

----------------------------
CARTESIAN COORDINATES (A.U.)
----------------------------
  NO LB      ZA    FRAG     MASS         X           Y           Z
   0 Ar   18.0000    1    39.948    0.000000    0.000000    0.000000
   1 Ar   18.0000    2    39.948    6.047124    0.000000    0.000000
   2 Ar   18.0000    3    39.948    2.220428    5.624714    0.000000

----------------------------------------------
CARTESIAN COORDINATES OF FRAGMENTS (ANGSTROEM)
----------------------------------------------

 FRAGMENT 1 
  Ar    0.000000    0.000000    0.000000

 FRAGMENT 2 
  Ar    3.200000    0.000000    0.000000

 FRAGMENT 3 
  Ar    1.175000    2.976470    0.000000

--------------------------------
INTERNAL COORDINATES (ANGSTROEM)
--------------------------------
 Ar     0   0   0     0.000000000000     0.00000000     0.00000000
 Ar     1   0   0     3.200000000000     0.00000000     0.00000000
 Ar     1   2   0     3.200000000000    68.45773266     0.00000000

---------------------------
INTERNAL COORDINATES (A.U.)
---------------------------
 Ar     0   0   0     0.000000000000     0.00000000     0.00000000
 Ar     1   0   0     6.047123628548     0.00000000     0.00000000
 Ar     1   2   0     6.047123628548    68.45773266     0.00000000

---------------------
BASIS SET INFORMATION
---------------------
There are 1 groups of distinct atoms

 Group   1 Type Ar  : 35s16p2d contracted to 5s4p2d pattern {11111111/7711/11}

Atom   0Ar   basis set group =>   1
Atom   1Ar   basis set group =>   1
Atom   2Ar   basis set group =>   1
---------------------------------
AUXILIARY/C BASIS SET INFORMATION
---------------------------------
There are 1 groups of distinct atoms

 Group   1 Type Ar  : 10s8p6d4f contracted to 10s8p6d4f pattern {1111111111/11111111/111111/1111}

Atom   0Ar   basis set group =>   1
Atom   1Ar   basis set group =>   1
Atom   2Ar   basis set group =>   1
------------------------------------------------------------------------------
                             ORCA STARTUP CALCULATIONS
------------------------------------------------------------------------------
------------------------------------------------------------------------------
                   ___                                                        
                  /   \      - P O W E R E D   B Y -                         
                 /     \                                                     
                 |  |  |   _    _      __       _____    __    __             
                 |  |  |  | |  | |    /  \     |  _  \  |  |  /  |          
                  \  \/   | |  | |   /    \    | | | |  |  | /  /          
                 / \  \   | |__| |  /  /\  \   | |_| |  |  |/  /          
                |  |  |   |  __  | /  /__\  \  |    /   |      \           
                |  |  |   | |  | | |   __   |  |    \   |  |\   \          
                \     /   | |  | | |  |  |  |  | |\  \  |  | \   \       
                 \___/    |_|  |_| |__|  |__|  |_| \__\ |__|  \__/        
                                                                              
                      - O R C A' S   B I G   F R I E N D -                    
                                      &                                       
                       - I N T E G R A L  F E E D E R -                       
                                                                              
 v1 FN, 2020, v2 2021, v3 2022-2024                                           
------------------------------------------------------------------------------


----------------------
SHARK INTEGRAL PACKAGE
----------------------

Number of atoms                             ...      3
Number of basis functions                   ...    150
Number of shells                            ...     72
Maximum angular momentum                    ...      2
Integral batch strategy                     ... SHARK/LIBINT Hybrid
RI-J (if used) integral strategy            ... SPLIT-RIJ (Revised 2003 algorithm where possible)
Printlevel                                  ...      1
Contraction scheme used                     ... PARTIAL GENERAL contraction
Prescreening option                         ... SCHWARTZ
   Thresh                                   ... 1.000e-12
   Tcut                                     ... 1.000e-14
   Tpresel                                  ... 1.000e-14 
Coulomb Range Separation                    ... NOT USED
Exchange Range Separation                   ... NOT USED
Multipole approximations                    ... NOT USED
Finite Nucleus Model                        ... NOT USED
CABS basis                                  ... NOT available
Auxiliary Coulomb fitting basis             ... NOT available
Auxiliary J/K fitting basis                 ... NOT available
Auxiliary Correlation fitting basis         ... AVAILABLE
   # of basis functions in Aux-C            ...    276
   # of shells in Aux-C                     ...     84
   Maximum angular momentum in Aux-C        ...      3
Auxiliary 'external' fitting basis          ... NOT available

Checking pre-screening integrals            ... done (  0.0 sec) Dimension = 72
Save PGC pre-screening integrals            ... done (  0.0 sec) Dimension = 72
Calculate PGC overlap integrals             ... done (  0.0 sec) Dimension = 33
Calculating pre-screening integrals (ORCA)  ... done (  0.1 sec) Dimension = 33
Check shell pair data                       ... done (  0.0 sec)
Shell pair information
Shell pair cut-off parameter TPreSel        ...   1.0e-14
Total number of shell pairs                 ...      2628
Shell pairs after pre-screening             ...      1838
Total number of primitive shell pairs       ...      2628
Primitive shell pairs kept                  ...      1838
          la=0 lb=0:    470 shell pairs
          la=1 lb=0:    691 shell pairs
          la=1 lb=1:    272 shell pairs
          la=2 lb=0:    224 shell pairs
          la=2 lb=1:    160 shell pairs
          la=2 lb=2:     21 shell pairs

Calculating one electron integrals          ... done (  0.0 sec)
Calculating RI/C V-Matrix + Cholesky decomp.... done (  0.0 sec)
Calculating Nuclear repulsion               ... done (  0.0 sec) ENN=    154.784333427750 Eh

Diagonalization of the overlap matrix:
Smallest eigenvalue                        ... 1.964e-02
Time for diagonalization                   ...    0.001 sec
Threshold for overlap eigenvalues          ... 1.000e-07
Number of eigenvalues below threshold      ... 0
Time for construction of square roots      ...    0.000 sec
Total time needed                          ...    0.001 sec

-------------------
DFT GRID GENERATION
-------------------

General Integration Accuracy     IntAcc      ... 4.388
Radial Grid Type                 RadialGrid  ... OptM3 with GC (2021)
Angular Grid (max. ang.)         AngularGrid ... 4 (Lebedev-302)
Angular grid pruning method      GridPruning ... 4 (adaptive)
Weight generation scheme         WeightScheme... mBecke (2022)
Basis function cutoff            BFCut       ... 1.0000e-12
Integration weight cutoff        WCut        ... 1.0000e-14
Partially contracted basis set               ... off
Rotationally invariant grid construction     ... off
Angular grids for H and He will be reduced by one unit

Total number of grid points                  ...    22077
Total number of batches                      ...      347
Average number of points per batch           ...       63
Average number of grid points per atom       ...     7359

---------------------
SHARK GRID GENERATION
---------------------

General Integration Accuracy     IntAcc      ... 4.388
Radial Grid Type                 RadialGrid  ... OptM3 with GC (2021)
Angular Grid (max. ang.)         AngularGrid ... 4 (Lebedev-302)
Angular grid pruning method      GridPruning ... 4 (adaptive)
Weight generation scheme         WeightScheme... mBecke (2022)
Basis function cutoff            BFCut       ... 1.0000e-12
Integration weight cutoff        WCut        ... 1.0000e-14
Partially contracted basis set               ... off
Rotationally invariant grid construction     ... off
Angular grids for H and He will be reduced by one unit
Core-polarized basis detected: some atoms will have their core
                               angular grid increased.
Steep s-basis detected: some atoms will have their radial
                        grid points doubled.

Total number of grid points                  ...    58011
Total number of batches                      ...      908
Average number of points per batch           ...       63
Average number of grid points per atom       ...    19337
Initializing property integral containers    ... done (  0.0 sec)

SHARK setup successfully completed in   1.2 seconds

Maximum memory used throughout the entire STARTUP-calculation: 27.6 MB
-------------------------------------------------------------------------------
                                 ORCA GUESS
                   Start orbitals & Density for SCF / CASSCF
-------------------------------------------------------------------------------

------------
SCF SETTINGS
------------
Hamiltonian:
 Ab initio Hamiltonian  Method          .... Hartree-Fock(GTOs)


General Settings:
 Integral files         IntName         .... AR3LD_3.6_3.2_3.2
 Hartree-Fock type      HFTyp           .... RHF
 Total Charge           Charge          ....    0
 Multiplicity           Mult            ....    1
 Number of Electrons    NEL             ....   54
 Basis Dimension        Dim             ....   81
 Nuclear Repulsion      ENuc            ....    154.7843334278 Eh

Convergence Acceleration:
 AO-DIIS                CNVDIIS         .... on
   Start iteration      DIISMaxIt       ....    12
   Startup error        DIISStart       ....  0.200000
   # of expansion vecs  DIISMaxEq       ....     5
   Bias factor          DIISBfac        ....   1.050
   Max. coefficient     DIISMaxC        ....  10.000
 MO-DIIS                CNVKDIIS        .... off
 Trust-Rad. Augm. Hess. CNVTRAH         .... auto
   Auto Start mean grad. ratio tolernc. ....  1.125000
   Auto Start start iteration           ....    50
   Auto Start num. interpolation iter.  ....    10
   Max. Number of Micro iterations      ....    24
   Max. Number of Macro iterations      .... Maxiter - #DIIS iter
   Number of Davidson start vectors     ....     2
   Converg. threshold    (grad. norm)   ....   2.000e-06
   Grad. Scal. Fac. for Micro threshold ....   0.100
   Minimum threshold for Micro iter.    ....   1.000e-02
   NR start threshold (gradient norm)   ....   1.000e-04
   Initial trust radius                 ....   0.400
   Minimum AH scaling param. (alpha)    ....   1.000
   Maximum AH scaling param. (alpha)    .... 1000.000
   Quad. conv. algorithm                .... NR
   White noise on init. David. guess    .... on
   Maximum white noise                  ....   0.010
   Pseudo random numbers                .... off
   Inactive MOs                         .... canonical
   Orbital update algorithm             .... Taylor
   Preconditioner                       .... Diag
   Full preconditioner red. dimension   ....   250
 SOSCF                  CNVSOSCF        .... on
   Start iteration      SOSCFMaxIt      ....   150
   Startup grad/error   SOSCFStart      ....  0.003300
   Hessian update       SOSCFHessUp     .... L-BFGS
 Level Shifting         CNVShift        .... on
   Level shift para.    LevelShift      ....    0.2500
   Turn off err/grad.   ShiftErr        ....    0.0010
 Zerner damping         CNVZerner       .... off
 Static damping         CNVDamp         .... on
   Fraction old density DampFac         ....    0.7000
   Max. Damping (<1)    DampMax         ....    0.9800
   Min. Damping (>=0)   DampMin         ....    0.0000
   Turn off err/grad.   DampErr         ....    0.1000

SCF Procedure:
 Maximum # iterations   MaxIter         ....   125
 SCF integral mode      SCFMode         .... Direct
   Integral package                     .... SHARK and LIBINT hybrid scheme
 Reset frequency        DirectResetFreq ....    20
 Integral Threshold     Thresh          ....  1.000e-12 Eh
 Primitive CutOff       TCut            ....  1.000e-14 Eh

Convergence Tolerance:
 Convergence Check Mode ConvCheckMode   .... Total+1el-Energy
 Convergence forced     ConvForced      .... 1
 Energy Change          TolE            ....  1.000e-09 Eh
 1-El. energy change                    ....  1.000e-06 Eh
 Orbital Gradient       TolG            ....  2.000e-06
 Orbital Rotation angle TolX            ....  2.000e-06
 DIIS Error             TolErr          ....  1.000e-08

------------------------------
INITIAL GUESS: MODEL POTENTIAL
------------------------------
Loading Hartree-Fock densities                     ... done
Calculating cut-offs                               ... done
Initializing the effective Hamiltonian             ... done
Setting up the integral package (SHARK)            ... done
Starting the Coulomb interaction                   ... done (   0.0 sec)
Making the grid                                    ... done (   0.0 sec)
Mapping shells                                     ... done
Starting the XC term evaluation                    ... done (   0.0 sec)
Transforming the Hamiltonian                       ... done (   0.0 sec)
Diagonalizing the Hamiltonian                      ... done (   0.0 sec)
Back transforming the eigenvectors                 ... done (   0.0 sec)
Now organizing SCF variables                       ... done
                      ------------------
                      INITIAL GUESS DONE (   0.1 sec)
                      ------------------
             **** ENERGY FILE WAS UPDATED (AR3LD_3.6_3.2_3.2.en.tmp) ****
Finished Guess after   0.1 sec
Maximum memory used throughout the entire GUESS-calculation: 6.8 MB

-------------------------------------------------------------------------------------------
                                      ORCA LEAN-SCF
                              memory conserving SCF solver
-------------------------------------------------------------------------------------------

----------------------------------------D-I-I-S--------------------------------------------
Iteration    Energy (Eh)           Delta-E    RMSDP     MaxDP     DIISErr   Damp  Time(sec)
-------------------------------------------------------------------------------------------
               ***  Starting incremental Fock matrix formation  ***
    1    -1580.3773002815496511     0.00e+00  1.09e-03  1.78e-02  9.17e-02  0.700   0.5
    2    -1580.3826430127844560    -5.34e-03  8.53e-04  1.29e-02  6.57e-02  0.700   0.4
                               ***Turning on AO-DIIS***
    3    -1580.3865379979131376    -3.89e-03  6.82e-04  9.48e-03  4.68e-02  0.700   0.5
    4    -1580.3893445639807851    -2.81e-03  1.68e-03  2.23e-02  3.28e-02  0.000   0.3
                              *** Initializing SOSCF ***
---------------------------------------S-O-S-C-F--------------------------------------
Iteration    Energy (Eh)           Delta-E    RMSDP     MaxDP     MaxGrad    Time(sec)
--------------------------------------------------------------------------------------
    5    -1580.3962195080387119    -6.87e-03  8.86e-05  1.03e-03  1.09e-03     0.4
               *** Restarting incremental Fock matrix formation ***
    6    -1580.3962293294025585    -9.82e-06  4.25e-05  5.65e-04  3.48e-04     0.4
    7    -1580.3962310225363126    -1.69e-06  1.56e-05  1.85e-04  8.43e-05     0.3
    8    -1580.3962311315410716    -1.09e-07  8.74e-07  1.49e-05  7.91e-06     0.4
    9    -1580.3962311321001835    -5.59e-10  1.79e-07  2.67e-06  1.33e-06     0.6
                 **** Energy Check signals convergence ****

               *****************************************************
               *                     SUCCESS                       *
               *           SCF CONVERGED AFTER   9 CYCLES          *
               *****************************************************

             **** ENERGY FILE WAS UPDATED (AR3LD_3.6_3.2_3.2.en.tmp) ****

----------------
TOTAL SCF ENERGY
----------------

Total Energy       :      -1580.39623113210018 Eh          -43004.76777 eV

Components:
Nuclear Repulsion  :        154.78433342775003 Eh            4211.89584 eV
Electronic Energy  :      -1735.18056455985015 Eh          -47216.66361 eV
One Electron Energy:      -2494.21810146051985 Eh          -67871.12504 eV
Two Electron Energy:        759.03753690066969 Eh           20654.46143 eV

Virial components:
Potential Energy   :      -3160.87006347739134 Eh          -86011.64717 eV
Kinetic Energy     :       1580.47383234529138 Eh           43006.87941 eV
Virial Ratio       :          1.99995090003289

---------------
SCF CONVERGENCE
---------------

  Last Energy change         ...    5.5911e-10  Tolerance :   1.0000e-09
  Last MAX-Density change    ...    2.6713e-06  Tolerance :   1.0000e-08
  Last RMS-Density change    ...    1.7907e-07  Tolerance :   1.0000e-09
  Last DIIS Error            ...    1.0879e-03  Tolerance :   1.0000e-08
  Last Orbital Gradient      ...    1.3282e-06  Tolerance :   2.0000e-06
  Last Orbital Rotation      ...    1.9184e-06  Tolerance :   2.0000e-06


----------------
ORBITAL ENERGIES
----------------

  NO   OCC          E(Eh)            E(eV) 
   0   2.0000    -118.608700     -3227.5068 
   1   2.0000    -118.608700     -3227.5068 
   2   2.0000    -118.607396     -3227.4713 
   3   2.0000     -12.321103      -335.2743 
   4   2.0000     -12.321096      -335.2741 
   5   2.0000     -12.319975      -335.2436 
   6   2.0000      -9.569692      -260.4046 
   7   2.0000      -9.569692      -260.4046 
   8   2.0000      -9.569683      -260.4043 
   9   2.0000      -9.569683      -260.4043 
  10   2.0000      -9.569680      -260.4042 
  11   2.0000      -9.569679      -260.4042 
  12   2.0000      -9.568560      -260.3738 
  13   2.0000      -9.568551      -260.3735 
  14   2.0000      -9.568547      -260.3734 
  15   2.0000      -1.283633       -34.9294 
  16   2.0000      -1.277382       -34.7593 
  17   2.0000      -1.274295       -34.6753 
  18   2.0000      -0.619002       -16.8439 
  19   2.0000      -0.608115       -16.5477 
  20   2.0000      -0.598162       -16.2768 
  21   2.0000      -0.597221       -16.2512 
  22   2.0000      -0.590123       -16.0581 
  23   2.0000      -0.587004       -15.9732 
  24   2.0000      -0.582994       -15.8641 
  25   2.0000      -0.573257       -15.5991 
  26   2.0000      -0.569587       -15.4993 
  27   0.0000       0.116997         3.1837 
  28   0.0000       0.119175         3.2429 
  29   0.0000       0.134375         3.6565 
  30   0.0000       0.135819         3.6958 
  31   0.0000       0.170569         4.6414 
  32   0.0000       0.173583         4.7234 
  33   0.0000       0.173785         4.7289 
  34   0.0000       0.176868         4.8128 
  35   0.0000       0.206847         5.6286 
  36   0.0000       0.211137         5.7453 
  37   0.0000       0.299016         8.1367 
*Only the first 10 virtual orbitals were printed.

                    ********************************
                    * MULLIKEN POPULATION ANALYSIS *
                    ********************************

-------------------------
MULLIKEN FRAGMENT CHARGES
-------------------------
 Fragment   0 :   0.000466
 Fragment   1 :  -0.000233
 Fragment   2 :  -0.000233
Sum of fragment charges:   -0.0000000

---------------------------------
MULLIKEN FRAGMENT OVERLAP CHARGES
---------------------------------
                  0          1          2    
      0      18.028993  -0.029459  -0.029459
      1      -0.029459  18.016424  -0.002923
      2      -0.029459  -0.002923  18.016424

-----------------------
MULLIKEN ATOMIC CHARGES
-----------------------
   0 Ar:    0.000466
   1 Ar:   -0.000233
   2 Ar:   -0.000233
Sum of atomic charges:   -0.0000000

--------------------------------
MULLIKEN REDUCED ORBITAL CHARGES
--------------------------------
  0 Ars       :     5.995654  s :     5.995654
      pz      :     3.999793  p :    12.003248
      px      :     4.001895
      py      :     4.001560
      dz2     :     0.000013  d :     0.000632
      dxz     :     0.000105
      dyz     :     0.000082
      dx2y2   :     0.000263
      dxy     :     0.000169

  1 Ars       :     5.997385  s :     5.997385
      pz      :     3.999888  p :    12.002315
      px      :     4.002062
      py      :     4.000366
      dz2     :     0.000050  d :     0.000534
      dxz     :     0.000102
      dyz     :     0.000020
      dx2y2   :     0.000156
      dxy     :     0.000206

  2 Ars       :     5.997385  s :     5.997385
      pz      :     3.999888  p :    12.002315
      px      :     4.000491
      py      :     4.001937
      dz2     :     0.000050  d :     0.000534
      dxz     :     0.000023
      dyz     :     0.000099
      dx2y2   :     0.000100
      dxy     :     0.000261



                     *******************************
                     * LOEWDIN POPULATION ANALYSIS *
                     *******************************

------------------------
LOEWDIN FRAGMENT CHARGES
------------------------
 Fragment   0 :  -0.001930
 Fragment   1 :   0.000965
 Fragment   2 :   0.000965

----------------------------
LOEWDIN FRAGMENT BOND ORDERS
----------------------------
                  0          1          2    
      0      18.001930   0.129646   0.129646
      1       0.129646  17.999035   0.059544
      2       0.129646   0.059544  17.999035

----------------------
LOEWDIN ATOMIC CHARGES
----------------------
   0 Ar:   -0.001930
   1 Ar:    0.000965
   2 Ar:    0.000965

-------------------------------
LOEWDIN REDUCED ORBITAL CHARGES
-------------------------------
  0 Ars       :     5.975156  s :     5.975156
      pz      :     3.999679  p :    12.017094
      px      :     4.010532
      py      :     4.006884
      dz2     :     0.002301  d :     0.009680
      dxz     :     0.000229
      dyz     :     0.000175
      dx2y2   :     0.005195
      dxy     :     0.001781

  1 Ars       :     5.981026  s :     5.981026
      pz      :     3.999743  p :    12.012355
      px      :     4.010150
      py      :     4.002463
      dz2     :     0.001314  d :     0.005654
      dxz     :     0.000203
      dyz     :     0.000013
      dx2y2   :     0.003493
      dxy     :     0.000632

  2 Ars       :     5.981026  s :     5.981026
      pz      :     3.999743  p :    12.012355
      px      :     4.001657
      py      :     4.010955
      dz2     :     0.001314  d :     0.005654
      dxz     :     0.000036
      dyz     :     0.000180
      dx2y2   :     0.001871
      dxy     :     0.002253



                      *****************************
                      * MAYER POPULATION ANALYSIS *
                      *****************************

  NA   - Mulliken gross atomic population
  ZA   - Total nuclear charge
  QA   - Mulliken gross atomic charge
  VA   - Mayer's total valence
  BVA  - Mayer's bonded valence
  FA   - Mayer's free valence

  ATOM       NA         ZA         QA         VA         BVA        FA
  0 Ar    17.9995    18.0000     0.0005    -0.0115    -0.0115     0.0000
  1 Ar    18.0002    18.0000    -0.0002    -0.0036    -0.0036    -0.0000
  2 Ar    18.0002    18.0000    -0.0002    -0.0036    -0.0036    -0.0000

  Mayer bond orders larger than 0.100000
  => no bond orders to print

-------
TIMINGS
-------

Total SCF time: 0 days 0 hours 0 min 3 sec 

Total time                  ....       3.852 sec
Sum of individual times     ....       3.843 sec  ( 99.8%)

SCF preparation             ....       0.036 sec  (  0.9%)
Fock matrix formation       ....       3.779 sec  ( 98.1%)
  Startup                   ....       0.001 sec  (  0.0% of F)
  Coulomb+Exchange Fock     ....       3.775 sec  ( 99.9% of F)
Diagonalization             ....       0.000 sec  (  0.0%)
Density matrix formation    ....       0.003 sec  (  0.1%)
Total Energy calculation    ....       0.001 sec  (  0.0%)
Population analysis         ....       0.004 sec  (  0.1%)
Orbital Transformation      ....       0.004 sec  (  0.1%)
Orbital Orthonormalization  ....       0.000 sec  (  0.0%)
DIIS solution               ....       0.010 sec  (  0.2%)
SOSCF solution              ....       0.005 sec  (  0.1%)
Finished LeanSCF after   3.9 sec

Maximum memory used throughout the entire LEANSCF-calculation: 8.8 MB

------------------------------------------------------------------------------
                         ORCA PROPERTY INTEGRAL CALCULATIONS
------------------------------------------------------------------------------

GBWName                                   ... AR3LD_3.6_3.2_3.2.gbw
Number of atoms                           ...      3
Number of basis functions                 ...    150
Max core memory                           ...   1024 MB

Dipole integrals                          ... YES
Quadrupole integrals                      ...  NO
Linear momentum integrals                 ... YES
Angular momentum integrals                ... YES
Higher moments length integrals           ...  NO
Higher moments velocity integrals         ...  NO
Kinetic energy integrals                  ...  NO
GIAO right hand sides                     ...  NO
GIAO dipole derivative integrals          ...  NO
SOC integrals                             ...  NO
EPR diamagnetic integrals (GIAO)          ...  NO
EPR gauge integrals                       ...  NO
Field gradient integrals                  ...  NO (   0 nuclei)
Spin-dipole/Fermi contact integrals       ...  NO (   0 nuclei)
Contact density integrals                 ...  NO (   0 nuclei)
Nucleus-orbit integrals                   ...  NO (   0 nuclei)
Geometric perturbations                   ...  NO (   3 nuclei)

Choice of electric origin   ... Center of mass
Position of electric origin ... (  2.7559,  1.8749,  0.0000) 
Choice of magnetic origin   ... GIAO
Position of magnetic origin ... (  0.0000,  0.0000,  0.0000) 

Calculating integrals                     ... Electric Dipole (Length)     done (  0.0 sec)
Calculating integrals                     ... Linear Momentum              done (  0.0 sec)
Calculating integrals                     ... Angular Momentum  (ElOri)    done (  0.0 sec)

Property integrals calculated in   0.0 sec

Maximum memory used throughout the entire PROPINT-calculation: 6.9 MB


--------------------------------------------------------------------------------
                             ORCA-MATRIX DRIVEN CI
--------------------------------------------------------------------------------


Wavefunction type
-----------------
Correlation treatment                      ...      CCSD     
Single excitations                         ... ON
Orbital optimization                       ... OFF
Calculation of Z vector                    ... OFF
Calculation of Brueckner orbitals          ... OFF
Perturbative triple excitations            ... OFF
Calculation of F12 correction              ... OFF
Frozen core treatment                      ... chemical core (30 el)
Reference Wavefunction                     ... RHF
  Internal Orbitals:    15 ...   26 ( 12 MO's/ 24 electrons)
  Virtual  Orbitals:    27 ...   80 ( 54 MO's              )
Number of AO's                             ...     81
Number of electrons                        ...     54
Number of correlated electrons             ...     24

Algorithmic settings
--------------------
Integral transformation                    ... All integrals via the RI transformation
K(C) Formation                             ... RI-DLPNO
   PNO-Integral Storage                    ... ON DISK
   PNO occupation number cut-off           ... 3.330e-07
   Singles PNO occupation number cut-off   ... 9.990e-09
   PNO Mulliken prescreening cut-off       ... 1.000e-03
   Domain cut-off (Mulliken population)    ... 1.000e-03
   PNO Normalization                       ...    1
Maximum number of iterations               ...        50
Convergence tolerance (max. residuum)      ... 1.000e-06
Level shift for amplitude update           ... 2.000e-01
Maximum number of DIIS vectors             ...         7
DIIS turned on at iteration                ...         0
Damping before turning on DIIS             ...     0.500
Damping after turning on DIIS              ...     0.000
Pair specific amplitude update             ... OFF
Natural orbital iterations                 ... OFF
Perturbative natural orbital generation    ... OFF
Printlevel                                 ... 2

Singles Fock matrix elements calculated using PNOs.

Memory handling:
----------------
Maximum memory for working arrays          ...    512 MB
Data storage in matrix containers          ... UNCOMPRESSED
Data type for integral storage             ... DOUBLE
In-Core Storage of quantities:
   Amplitudes+Sigma Vector      ... NO
   J+K operators                ... NO
   DIIS vectors                 ... NO
   3-external integrals         ... NO
   4-external integrals         ... NO

Localization treatment:
-----------------------
Localization option                        ...    2
Localization threshhold                    ... -1.0e+00
Using relative localization threshhold     ... 1.0e-08
Neglect threshold for strong pairs         ... 1.000e-05 Eh
Prescreening threshold for very weak pairs ... 1.000e-07 Eh
Using randomized seed for localization     ... on

Initializing the integral package          ... done
Localizing the valence orbitals
Localizing the valence orbitals
------------------------------------------------------------------------------
                           ORCA ORBITAL LOCALIZATION
------------------------------------------------------------------------------

Input orbitals are from                  ... AR3LD_3.6_3.2_3.2.proc0.gbw
Output orbitals are to                   ... AR3LD_3.6_3.2_3.2.proc0.loc
Max. number of iterations                ... 128
Localizations seeded randomly            ... on
Convergence tolerance                    ... 2.000e-07
Using relative localization threshhold   ... 1.000e-08
Threshold for strong local MOs           ... 9.500e-01
Threshold for bond MOs                   ... 8.500e-01
Operator                                 ... 0
Orbital range for localization           ... 15 to 26
Localization criterion                   ... FOSTER-BOYS
Doing the dipole integrals     ... o.k.
Entering Jacobi type localization:
Using Cholesky decomposition as initial guess.
Initial value of the localization sum :   159.262069
ITERATION   0 : L=  166.0675130370 DL=  6.81e+00 (MAX-T)=  45.000 
ITERATION   1 : L=  166.0799061997 DL=  1.24e-02 (MAX-T)=   2.992 
ITERATION   2 : L=  166.0802984638 DL=  3.92e-04 (MAX-T)=   0.367 
ITERATION   3 : L=  166.0806345198 DL=  3.36e-04 (MAX-T)=   0.342 
ITERATION   4 : L=  166.0810083097 DL=  3.74e-04 (MAX-T)=   0.375 
ITERATION   5 : L=  166.0813810984 DL=  3.73e-04 (MAX-T)=   0.324 
ITERATION   6 : L=  166.0817044090 DL=  3.23e-04 (MAX-T)=   0.295 
ITERATION   7 : L=  166.0820661503 DL=  3.62e-04 (MAX-T)=   0.408 
ITERATION   8 : L=  166.0824042186 DL=  3.38e-04 (MAX-T)=   0.326 
ITERATION   9 : L=  166.0828357813 DL=  4.32e-04 (MAX-T)=   0.326 
ITERATION  10 : L=  166.0832140475 DL=  3.78e-04 (MAX-T)=   0.363 
ITERATION  11 : L=  166.0836562177 DL=  4.42e-04 (MAX-T)=   0.379 
ITERATION  12 : L=  166.0841324474 DL=  4.76e-04 (MAX-T)=   0.362 
ITERATION  13 : L=  166.0846297548 DL=  4.97e-04 (MAX-T)=   0.351 
ITERATION  14 : L=  166.0850355865 DL=  4.06e-04 (MAX-T)=   0.352 
ITERATION  15 : L=  166.0854324410 DL=  3.97e-04 (MAX-T)=   0.361 
ITERATION  16 : L=  166.0859187216 DL=  4.86e-04 (MAX-T)=   0.345 
ITERATION  17 : L=  166.0864118727 DL=  4.93e-04 (MAX-T)=   0.347 
ITERATION  18 : L=  166.0869631264 DL=  5.51e-04 (MAX-T)=   0.333 
ITERATION  19 : L=  166.0875037514 DL=  5.41e-04 (MAX-T)=   0.389 
ITERATION  20 : L=  166.0879870021 DL=  4.83e-04 (MAX-T)=   0.425 
ITERATION  21 : L=  166.0885511158 DL=  5.64e-04 (MAX-T)=   0.386 
ITERATION  22 : L=  166.0891429754 DL=  5.92e-04 (MAX-T)=   0.397 
ITERATION  23 : L=  166.0897033903 DL=  5.60e-04 (MAX-T)=   0.404 
ITERATION  24 : L=  166.0903129336 DL=  6.10e-04 (MAX-T)=   0.392 
ITERATION  25 : L=  166.0909605288 DL=  6.48e-04 (MAX-T)=   0.413 
ITERATION  26 : L=  166.0915436114 DL=  5.83e-04 (MAX-T)=   0.415 
ITERATION  27 : L=  166.0921868238 DL=  6.43e-04 (MAX-T)=   0.378 
ITERATION  28 : L=  166.0929059843 DL=  7.19e-04 (MAX-T)=   0.414 
ITERATION  29 : L=  166.0935598049 DL=  6.54e-04 (MAX-T)=   0.441 
ITERATION  30 : L=  166.0942506548 DL=  6.91e-04 (MAX-T)=   0.428 
ITERATION  31 : L=  166.0950121669 DL=  7.62e-04 (MAX-T)=   0.519 
ITERATION  32 : L=  166.0957336090 DL=  7.21e-04 (MAX-T)=   0.454 
ITERATION  33 : L=  166.0964012950 DL=  6.68e-04 (MAX-T)=   0.508 
ITERATION  34 : L=  166.0971728953 DL=  7.72e-04 (MAX-T)=   0.462 
ITERATION  35 : L=  166.0979915693 DL=  8.19e-04 (MAX-T)=   0.506 
ITERATION  36 : L=  166.0986746947 DL=  6.83e-04 (MAX-T)=   0.449 
ITERATION  37 : L=  166.0994652976 DL=  7.91e-04 (MAX-T)=   0.478 
ITERATION  38 : L=  166.1001992598 DL=  7.34e-04 (MAX-T)=   0.429 
ITERATION  39 : L=  166.1009876215 DL=  7.88e-04 (MAX-T)=   0.510 
ITERATION  40 : L=  166.1016036102 DL=  6.16e-04 (MAX-T)=   0.467 
ITERATION  41 : L=  166.1023555782 DL=  7.52e-04 (MAX-T)=   0.542 
ITERATION  42 : L=  166.1031032240 DL=  7.48e-04 (MAX-T)=   0.530 
ITERATION  43 : L=  166.1038497265 DL=  7.47e-04 (MAX-T)=   0.525 
ITERATION  44 : L=  166.1043818851 DL=  5.32e-04 (MAX-T)=   0.487 
ITERATION  45 : L=  166.1050476854 DL=  6.66e-04 (MAX-T)=   0.529 
ITERATION  46 : L=  166.1057753087 DL=  7.28e-04 (MAX-T)=   0.504 
ITERATION  47 : L=  166.1064358242 DL=  6.61e-04 (MAX-T)=   0.497 
ITERATION  48 : L=  166.1071200839 DL=  6.84e-04 (MAX-T)=   0.505 
ITERATION  49 : L=  166.1075878268 DL=  4.68e-04 (MAX-T)=   0.502 
ITERATION  50 : L=  166.1081548239 DL=  5.67e-04 (MAX-T)=   0.432 
ITERATION  51 : L=  166.1086302855 DL=  4.75e-04 (MAX-T)=   0.505 
ITERATION  52 : L=  166.1092425658 DL=  6.12e-04 (MAX-T)=   0.398 
ITERATION  53 : L=  166.1096473321 DL=  4.05e-04 (MAX-T)=   0.360 
ITERATION  54 : L=  166.1100818568 DL=  4.35e-04 (MAX-T)=   0.425 
ITERATION  55 : L=  166.1104751504 DL=  3.93e-04 (MAX-T)=   0.375 
ITERATION  56 : L=  166.1109303067 DL=  4.55e-04 (MAX-T)=   0.400 
ITERATION  57 : L=  166.1113346389 DL=  4.04e-04 (MAX-T)=   0.372 
ITERATION  58 : L=  166.1116448281 DL=  3.10e-04 (MAX-T)=   0.405 
ITERATION  59 : L=  166.1119629808 DL=  3.18e-04 (MAX-T)=   0.316 
ITERATION  60 : L=  166.1122709519 DL=  3.08e-04 (MAX-T)=   0.407 
ITERATION  61 : L=  166.1125762943 DL=  3.05e-04 (MAX-T)=   0.327 
ITERATION  62 : L=  166.1128523972 DL=  2.76e-04 (MAX-T)=   0.322 
ITERATION  63 : L=  166.1131385871 DL=  2.86e-04 (MAX-T)=   0.277 
ITERATION  64 : L=  166.1133563032 DL=  2.18e-04 (MAX-T)=   0.351 
ITERATION  65 : L=  166.1135524949 DL=  1.96e-04 (MAX-T)=   0.280 
ITERATION  66 : L=  166.1137579491 DL=  2.05e-04 (MAX-T)=   0.280 
ITERATION  67 : L=  166.1139521123 DL=  1.94e-04 (MAX-T)=   0.320 
ITERATION  68 : L=  166.1141315881 DL=  1.79e-04 (MAX-T)=   0.291 
ITERATION  69 : L=  166.1142916092 DL=  1.60e-04 (MAX-T)=   0.238 
ITERATION  70 : L=  166.1144753506 DL=  1.84e-04 (MAX-T)=   0.241 
ITERATION  71 : L=  166.1146280919 DL=  1.53e-04 (MAX-T)=   0.250 
ITERATION  72 : L=  166.1147578160 DL=  1.30e-04 (MAX-T)=   0.268 
ITERATION  73 : L=  166.1148916863 DL=  1.34e-04 (MAX-T)=   0.235 
ITERATION  74 : L=  166.1150079985 DL=  1.16e-04 (MAX-T)=   0.241 
ITERATION  75 : L=  166.1151365912 DL=  1.29e-04 (MAX-T)=   0.218 
ITERATION  76 : L=  166.1152380228 DL=  1.01e-04 (MAX-T)=   0.222 
ITERATION  77 : L=  166.1153369195 DL=  9.89e-05 (MAX-T)=   0.215 
ITERATION  78 : L=  166.1154318599 DL=  9.49e-05 (MAX-T)=   0.209 
ITERATION  79 : L=  166.1155105412 DL=  7.87e-05 (MAX-T)=   0.164 
ITERATION  80 : L=  166.1155891261 DL=  7.86e-05 (MAX-T)=   0.177 
ITERATION  81 : L=  166.1156574622 DL=  6.83e-05 (MAX-T)=   0.158 
ITERATION  82 : L=  166.1157171287 DL=  5.97e-05 (MAX-T)=   0.150 
ITERATION  83 : L=  166.1157833838 DL=  6.63e-05 (MAX-T)=   0.166 
ITERATION  84 : L=  166.1158319477 DL=  4.86e-05 (MAX-T)=   0.148 
ITERATION  85 : L=  166.1158854090 DL=  5.35e-05 (MAX-T)=   0.157 
ITERATION  86 : L=  166.1159338831 DL=  4.85e-05 (MAX-T)=   0.163 
ITERATION  87 : L=  166.1159777499 DL=  4.39e-05 (MAX-T)=   0.110 
ITERATION  88 : L=  166.1160197292 DL=  4.20e-05 (MAX-T)=   0.120 
ITERATION  89 : L=  166.1160566909 DL=  3.70e-05 (MAX-T)=   0.119 
ITERATION  90 : L=  166.1160953950 DL=  3.87e-05 (MAX-T)=   0.111 
ITERATION  91 : L=  166.1161300599 DL=  3.47e-05 (MAX-T)=   0.129 
ITERATION  92 : L=  166.1161683620 DL=  3.83e-05 (MAX-T)=   0.113 
ITERATION  93 : L=  166.1161934264 DL=  2.51e-05 (MAX-T)=   0.096 
ITERATION  94 : L=  166.1162218284 DL=  2.84e-05 (MAX-T)=   0.105 
ITERATION  95 : L=  166.1162474628 DL=  2.56e-05 (MAX-T)=   0.107 
ITERATION  96 : L=  166.1162698281 DL=  2.24e-05 (MAX-T)=   0.084 
ITERATION  97 : L=  166.1162858027 DL=  1.60e-05 (MAX-T)=   0.076 
ITERATION  98 : L=  166.1163018432 DL=  1.60e-05 (MAX-T)=   0.075 
ITERATION  99 : L=  166.1163200060 DL=  1.82e-05 (MAX-T)=   0.061 
ITERATION 100 : L=  166.1163382339 DL=  1.82e-05 (MAX-T)=   0.082 
ITERATION 101 : L=  166.1163544566 DL=  1.62e-05 (MAX-T)=   0.088 
ITERATION 102 : L=  166.1163710443 DL=  1.66e-05 (MAX-T)=   0.074 
ITERATION 103 : L=  166.1163840866 DL=  1.30e-05 (MAX-T)=   0.073 
ITERATION 104 : L=  166.1164002046 DL=  1.61e-05 (MAX-T)=   0.074 
ITERATION 105 : L=  166.1164158150 DL=  1.56e-05 (MAX-T)=   0.062 
ITERATION 106 : L=  166.1164271224 DL=  1.13e-05 (MAX-T)=   0.075 
ITERATION 107 : L=  166.1164406030 DL=  1.35e-05 (MAX-T)=   0.067 
ITERATION 108 : L=  166.1164514787 DL=  1.09e-05 (MAX-T)=   0.063 
ITERATION 109 : L=  166.1164613419 DL=  9.86e-06 (MAX-T)=   0.069 
ITERATION 110 : L=  166.1164688283 DL=  7.49e-06 (MAX-T)=   0.042 
ITERATION 111 : L=  166.1164782158 DL=  9.39e-06 (MAX-T)=   0.058 
ITERATION 112 : L=  166.1164872358 DL=  9.02e-06 (MAX-T)=   0.057 
ITERATION 113 : L=  166.1164951379 DL=  7.90e-06 (MAX-T)=   0.063 
ITERATION 114 : L=  166.1165028443 DL=  7.71e-06 (MAX-T)=   0.060 
ITERATION 115 : L=  166.1165113279 DL=  8.48e-06 (MAX-T)=   0.053 
ITERATION 116 : L=  166.1165185233 DL=  7.20e-06 (MAX-T)=   0.050 
ITERATION 117 : L=  166.1165254699 DL=  6.95e-06 (MAX-T)=   0.054 
ITERATION 118 : L=  166.1165320483 DL=  6.58e-06 (MAX-T)=   0.058 
ITERATION 119 : L=  166.1165383378 DL=  6.29e-06 (MAX-T)=   0.056 
ITERATION 120 : L=  166.1165448503 DL=  6.51e-06 (MAX-T)=   0.050 
ITERATION 121 : L=  166.1165496471 DL=  4.80e-06 (MAX-T)=   0.047 
ITERATION 122 : L=  166.1165560282 DL=  6.38e-06 (MAX-T)=   0.054 
ITERATION 123 : L=  166.1165608864 DL=  4.86e-06 (MAX-T)=   0.046 
ITERATION 124 : L=  166.1165659026 DL=  5.02e-06 (MAX-T)=   0.052 
ITERATION 125 : L=  166.1165704355 DL=  4.53e-06 (MAX-T)=   0.036 
ITERATION 126 : L=  166.1165745974 DL=  4.16e-06 (MAX-T)=   0.043 
ITERATION 127 : L=  166.1165799793 DL=  5.38e-06 (MAX-T)=   0.052 
MAXIMUM NO OF ITERATIONS EXCEEDED - LOCALIZATION NOT CONVERGED


--------------------------------------------------------------------------------
                    LOCALIZED MOLECULAR ORBITAL COMPOSITIONS
--------------------------------------------------------------------------------

The Mulliken populations for each LMO on each atom are computed
The LMO`s will be ordered according to atom index and type
  (A) Strongly localized MO`s have populations of >=0.950 on one atom
  (B) Two center bond orbitals have populations of >=0.850 on two atoms
  (C) Other MO`s are considered to be `delocalized`

FOUND  -  12 strongly local MO`s
       -   0 two center bond MO`s
       -   0 significantly delocalized MO`s

Rather strongly localized orbitals:
MO  26:   2Ar -   1.000547
MO  25:   2Ar -   1.000228
MO  24:   2Ar -   1.000226
MO  23:   2Ar -   1.000907
MO  22:   1Ar -   1.000371
MO  21:   1Ar -   1.000453
MO  20:   1Ar -   1.000200
MO  19:   1Ar -   1.000884
MO  18:   0Ar -   1.001355
MO  17:   0Ar -   1.001337
MO  16:   0Ar -   1.000484
MO  15:   0Ar -   1.000472
Localized MO's were stored in: AR3LD_3.6_3.2_3.2.proc0.loc

Localizing the core orbitals
Localization sum:   199.483849772 
------------------------------------------------------------------------------
                           ORCA ORBITAL LOCALIZATION
------------------------------------------------------------------------------

Input orbitals are from                  ... AR3LD_3.6_3.2_3.2.proc0.loc
Output orbitals are to                   ... AR3LD_3.6_3.2_3.2.proc0.loc
Max. number of iterations                ... 128
Localizations seeded randomly            ... on
Convergence tolerance                    ... 2.000e-07
Using relative localization threshhold   ... 1.000e-08
Threshold for strong local MOs           ... 9.500e-01
Threshold for bond MOs                   ... 8.500e-01
Operator                                 ... 0
Orbital range for localization           ... 0 to 14
Localization criterion                   ... FOSTER-BOYS
Doing the dipole integrals     ... o.k.
Entering Jacobi type localization:
Using Cholesky decomposition as initial guess.
Initial value of the localization sum :   199.027379
ITERATION   0 : L=  199.4829435503 DL=  4.56e-01 (MAX-T)=  45.000 
ITERATION   1 : L=  199.4838469352 DL=  9.03e-04 (MAX-T)=   3.520 
ITERATION   2 : L=  199.4838497585 DL=  2.82e-06 (MAX-T)=   0.240 
ITERATION   3 : L=  199.4838497720 DL=  1.35e-08 (MAX-T)=   0.016 
LOCALIZATION SUM CONVERGED


--------------------------------------------------------------------------------
                    LOCALIZED MOLECULAR ORBITAL COMPOSITIONS
--------------------------------------------------------------------------------

The Mulliken populations for each LMO on each atom are computed
The LMO`s will be ordered according to atom index and type
  (A) Strongly localized MO`s have populations of >=0.950 on one atom
  (B) Two center bond orbitals have populations of >=0.850 on two atoms
  (C) Other MO`s are considered to be `delocalized`

FOUND  -  15 strongly local MO`s
       -   0 two center bond MO`s
       -   0 significantly delocalized MO`s

Rather strongly localized orbitals:
MO  14:   2Ar -   1.000017
MO  13:   2Ar -   1.000000
MO  12:   2Ar -   1.000018
MO  11:   2Ar -   1.000035
MO  10:   2Ar -   1.000028
MO   9:   1Ar -   1.000014
MO   8:   1Ar -   1.000030
MO   7:   1Ar -   1.000031
MO   6:   1Ar -   1.000000
MO   5:   1Ar -   1.000022
MO   4:   0Ar -   1.000021
MO   3:   0Ar -   1.000030
MO   2:   0Ar -   1.000043
MO   1:   0Ar -   1.000000
MO   0:   0Ar -   1.000044
Localized MO's were stored in: AR3LD_3.6_3.2_3.2.proc0.loc

Warning: reference  - re-canonicalizations have been set to INT 1 VIRT 1
Warning: internal orbitals are localized - no re-canonicalization of internal orbitals
Warning: UsePNO is turned on - no re-canonicalization of internal and virtual orbitals
Fock densities were made 
Making Fock matrix and reference energy:

--------------------------
CLOSED-SHELL FOCK OPERATOR
--------------------------

Time needed for Fock operator              ...            1.849 sec
Reference energy                           ...  -1580.396231132

--------------
DLPNO SETTINGS (2015 fully linear scaling implementation)
--------------

TCutMKN:           1.000e-03
TCutPAO:           1.000e-03
TCutPNO:           3.330e-07
TCutPNOSingles:    9.990e-09
TCutEN:            9.700e-01
TCutPAOExt:        1.000e-01
TCutPairs:         1.000e-05
TCutPre:           1.000e-07
TCutOSV:           1.000e-06
TCutDOij:          1.000e-05
TCutDO:            1.000e-02
TCutC:             1.000e-04
TCutCPAO:          1.000e-03
TCutCMO:           1.000e-03
TScaleDOMP2PreScr: 2.000e+00
TScaleMKNMP2PreScr:1.000e+01
TScalePNOMP2PreScr:1.000e+00
PAO overlap thresh 1.000e-08
Using PNOs for Singles Fock computation
Use new domains
Use fully linear algorithm

--------------------------
Mulliken population of the LMOs            ... ok
Performing proximity check                 ... No problems found
Calculating differential overlap integrals ... ok

------------------------
PRESCREENING OF HF PAIRS
------------------------

   .... Finished loop over pairs

                  ============================================
                    30 of   78 PAIRS WERE SKIPPED as HF PAIRS
                  ============================================

Total time spent in skipping HF pairs                 ...     0.000 sec
--------------------------
ELECTRON PAIR PRESCREENING
--------------------------

Dipole-based pair screening          .... used

   TCutDOij = 1.000000e-05
   TCutPre  = 1.000000e-07
   .... Finished loop over pairs
Total time spent in the prescreening                  ...     0.000 sec
sum of pair energies estimated for screened out pairs ...       0.000000000000 Eh
Thresholds for map construction and integral transformation for crude MP2:
   TCutMKN                    ...     1.0e-02
   TCutDO                     ...     2.0e-02
   TCutPairs                  ...     1.0e-05
   TCutPNO_CrudeMP2           ...     3.3e-07
   TCutPNOSingles_CrudeMP2    ...     1.0e-08
--------------------------------
LOCAL RI TRANSFORMATION (IAVPAO)
--------------------------------

Orbital window:      15 to 26
Number of PAOs:      81
Basis functions:     81 (33 shells)
Aux. functions:     276 (84 shells)
Use SHARK:           on
Have SHARK:         yes

Processing maps (0.0 sec)
Average map sizes:
   Aux shells -> MOs              12.0
   Aux shells -> PAOs             81.0
   MOs        -> AO shells        33.0
   PAOs       -> AO shells        33.0

Calculating integrals (0.2 sec, 2.050 MB)
Sorting integrals (0.0 sec, 2.047 MB)
Total time for the integral transformation: 0.2 sec
--------------------------------
INITIAL GUESS AND PNO GENERATION
--------------------------------

Populations of internal orbitals onto Fragments:
  15:      1.000    0.001    0.000  assigned to fragment   1
  16:      1.000    0.000    0.001  assigned to fragment   1
  17:      1.001    0.001    0.001  assigned to fragment   1
  18:      1.001    0.001    0.001  assigned to fragment   1
  19:      0.001    1.001    0.000  assigned to fragment   2
  20:      0.000    1.000    0.000  assigned to fragment   2
  21:      0.000    1.000    0.000  assigned to fragment   2
  22:      0.000    1.000    0.000  assigned to fragment   2
  23:      0.001    0.000    1.001  assigned to fragment   3
  24:      0.000    0.000    1.000  assigned to fragment   3
  25:      0.000    0.000    1.000  assigned to fragment   3
  26:      0.000    0.000    1.001  assigned to fragment   3

Summary assignment:
   4 orbitals assigned to fragment   1
   4 orbitals assigned to fragment   2
   4 orbitals assigned to fragment   3

PNO truncation parameters                   .... 
    PAOOverlapThresh   =        1.000e-08

Pair selection                          .... 
  modified with fragment specific keywords
  Pairs will be selected according to these
  intra(inter)fragment cutoffs
  1 <-> 1
    Intrafragment pairs 1 <-> 1 neglected for CCSD
  1 <-> 2
    TCutPairs          =        1.000e-05
    TCutPNO            =        3.330e-07
    TCutMKN            =        1.000e-02
    TCutDO             =        2.000e-02
    TCutPNOSingles     =        9.990e-09
    TCutMP2Pairs       =        1.000e-06
  1 <-> 3
    TCutPairs          =        1.000e-05
    TCutPNO            =        3.330e-07
    TCutMKN            =        1.000e-02
    TCutDO             =        2.000e-02
    TCutPNOSingles     =        9.990e-09
    TCutMP2Pairs       =        1.000e-06
  2 <-> 2
    Intrafragment pairs 2 <-> 2 neglected for CCSD
  2 <-> 3
    TCutPairs          =        1.000e-05
    TCutPNO            =        3.330e-07
    TCutMKN            =        1.000e-02
    TCutDO             =        2.000e-02
    TCutPNOSingles     =        9.990e-09
    TCutMP2Pairs       =        1.000e-06
  3 <-> 3
    Intrafragment pairs 3 <-> 3 neglected for CCSD

Type of local MP2 treatment                 .... semi-local MP2
Strategy for PNO selection                  .... occupation number selection
Pair density normalization                  .... MP2 norm
Spin component scaling                      .... not used

   .... Finished loop over pairs
Making pair pair interaction lists          ... done

                       ===========================
                         48 OF   60 PAIRS ARE KEPT CCSD PAIRS
                          0 OF   60 PAIRS ARE KEPT MP2 PAIRS
                         12 OF   60 PAIRS ARE SKIPPED
                       ===========================

Total time spent in the initial guess                 ...     0.323 sec
SL-MP2 correlation energy (all non-screened pairs)    ...      -0.004104018168 Eh

Initial PNO correlation energy                        ...      -0.003991998500 Eh
sum of pair energies prescreened and skipped MP2 pairs...       0.000000000000 Eh
sum of pair energies of crude MP2 skipped pairs only  ...       0.000000000000 Eh
sum of MP2 pair energies for pairs that were not kept ...       0.000000000000 Eh
sum of PNO error estimates for the kept pairs         ...      -0.000112019668 Eh
                                                          --------------------
sum of all corrections                                         -0.000112019668
Initial total correlation energy                               -0.004104018168
Thresholds for map construction and integral transformation for fine MP2 and CCSD(T) calculation:
   TCutMKN   ...     1.0e-03
   TCutDO    ...     1.0e-02
   TCutPairs ...     1.0e-05
   TCutCMO   ...     1.0e-03
   TCutCPAO  ...     1.0e-03

--------------------------------
LOCAL RI TRANSFORMATION (IAVPAO)
--------------------------------

Orbital window:      15 to 26
Number of PAOs:      81
Basis functions:     81 (33 shells)
Aux. functions:     276 (84 shells)
Use SHARK:           on
Have SHARK:         yes

Processing maps (0.0 sec)
Average map sizes:
   Aux shells -> MOs              12.0
   Aux shells -> PAOs             81.0
   MOs        -> AO shells        33.0
   PAOs       -> AO shells        33.0

Calculating integrals (0.2 sec, 2.050 MB)
Sorting integrals (0.0 sec, 2.047 MB)
Total time for the integral transformation: 0.2 sec
--------------------------------
INITIAL GUESS AND PNO GENERATION
--------------------------------

Populations of internal orbitals onto Fragments:
  15:      1.000    0.001    0.000  assigned to fragment   1
  16:      1.000    0.000    0.001  assigned to fragment   1
  17:      1.001    0.001    0.001  assigned to fragment   1
  18:      1.001    0.001    0.001  assigned to fragment   1
  19:      0.001    1.001    0.000  assigned to fragment   2
  20:      0.000    1.000    0.000  assigned to fragment   2
  21:      0.000    1.000    0.000  assigned to fragment   2
  22:      0.000    1.000    0.000  assigned to fragment   2
  23:      0.001    0.000    1.001  assigned to fragment   3
  24:      0.000    0.000    1.000  assigned to fragment   3
  25:      0.000    0.000    1.000  assigned to fragment   3
  26:      0.000    0.000    1.001  assigned to fragment   3

Summary assignment:
   4 orbitals assigned to fragment   1
   4 orbitals assigned to fragment   2
   4 orbitals assigned to fragment   3

PNO truncation parameters                   .... 
    PAOOverlapThresh   =        1.000e-08

Pair selection                          .... 
  modified with fragment specific keywords
  Pairs will be selected according to these
  intra(inter)fragment cutoffs
  1 <-> 1
    Intrafragment pairs 1 <-> 1 neglected for CCSD
  1 <-> 2
    TCutPairs          =        1.000e-05
    TCutPNO            =        3.330e-07
    TCutMKN            =        1.000e-03
    TCutDO             =        1.000e-02
    TCutPNOSingles     =        9.990e-09
    TCutMP2Pairs       =        1.000e-06
  1 <-> 3
    TCutPairs          =        1.000e-05
    TCutPNO            =        3.330e-07
    TCutMKN            =        1.000e-03
    TCutDO             =        1.000e-02
    TCutPNOSingles     =        9.990e-09
    TCutMP2Pairs       =        1.000e-06
  2 <-> 2
    Intrafragment pairs 2 <-> 2 neglected for CCSD
  2 <-> 3
    TCutPairs          =        1.000e-05
    TCutPNO            =        3.330e-07
    TCutMKN            =        1.000e-03
    TCutDO             =        1.000e-02
    TCutPNOSingles     =        9.990e-09
    TCutMP2Pairs       =        1.000e-06
  3 <-> 3
    Intrafragment pairs 3 <-> 3 neglected for CCSD

Type of local MP2 treatment                 .... semi-local MP2
Strategy for PNO selection                  .... occupation number selection
Pair density normalization                  .... MP2 norm
Spin component scaling                      .... not used

   .... Finished loop over pairs

 PNO Occupation Number Statistics: 
  | Av. % of trace(Dij) retained        ...  98.306120418566
  | sigma^2 in % of trace(Dij) retained ...   2.09e-01
  | Av. % of trace(Di) retained         ...  99.999909631402
  | sigma^2 in % of trace(Di) retained  ...   1.65e-09
 Distributions of % trace(Dij) recovered:
  |   [90.0, 99.0) ...    48 (100.0 % of all pairs)
 Distributions of % trace(Di) recovered :
  |       >= 99.9  ...    12 (100.0 % of all I-pairs )

Making pair pair interaction lists          ... done

                       ===========================
                         48 OF   60 PAIRS ARE KEPT
                       ===========================

Total time spent in the initial guess                 ...     0.358 sec
SL-MP2 correlation energy (all non-screened pairs)    ...      -0.004104018168 Eh

Initial PNO correlation energy                        ...      -0.003991998500 Eh
sum of pair energies estimated for screened out pairs ...       0.000000000000 Eh
sum of MP2 pair energies for pairs that were not kept ...       0.000000000000 Eh
sum of PNO error estimates for the kept pairs         ...      -0.000112019668 Eh
                                                          --------------------
sum of all corrections                                         -0.000112019668
Initial total correlation energy                               -0.004104018168
Thresholds for map construction and integral transformation for fine MP2 and CCSD(T) calculation:
   TCutMKN   ...     1.0e-03
   TCutDO    ...     1.0e-02
   TCutPairs ...     1.0e-05
   TCutCMO   ...     1.0e-03
   TCutCPAO  ...     1.0e-03

Time for aux screen maps:            0.000
Time for maps after fine MP2:            0.002
-----------------------------
LOCAL RI TRANSFORMATION (IJV)
-----------------------------

Orbital window:      15 to 26
Basis functions:     81 (33 shells)
Aux. functions:     276 (84 shells)
Use SHARK:           on

Processing maps (0.0 sec)
Average map sizes:
   Aux shells -> MOs(i)           12.0
   Aux shells -> MOs(j)           12.0
   MOs        -> AO shells        33.0

Calculating integrals NOTE: Switching SHARK to General Contraction for MDCI
      If that is not desired please turn off the PGCFlag in the input (%shark PGCFlag 0 end)
(1.2 sec, 0.306 MB)
Sorting integrals (0.0 sec, 0.303 MB)
Total time for the integral transformation: 1.2 sec
--------------------------------
LOCAL RI TRANSFORMATION (VABPAO)
--------------------------------

Number of PAOs:      81
Basis functions:     81 (33 shells)
Aux. functions:     276 (84 shells)
Use SHARK:           on

Processing maps (0.0 sec)
Average map sizes:
   Aux shells -> PAOs             81.0
   PAOs       -> AO shells        33.0

Calculating integrals NOTE: Switching SHARK to General Contraction for MDCI
      If that is not desired please turn off the PGCFlag in the input (%shark PGCFlag 0 end)
(1.3 sec, 13.819 MB)
Finished


-------------------------------------
Pair Pair Term precalculation with     
RI-(ij|mn) and (im|jn) transformation  
ON THE FLY                             
-------------------------------------

   IBatch   1 (of   1)              ... done (    1.228 sec)
Total EXT                           ...           1.228 sec

IAVPA Available = YES
VABPAO Available= YES
IJV Available   = YES
IJK Available   = NO
PNO3i Available = YES
PNO3j Available = YES
PNO4 Available  = YES
---------------------
RI-PNO TRANSFORMATION
---------------------

Total Number of PNOs                   ...   376
Average number of PNOs per pair        ...     7
Maximal number of PNOs per pair        ...    10
   #pairs with  1 -  5 PNOs   :    0
   #pairs with  6 - 10 PNOs   :   48
   #pairs with 11 - 15 PNOs   :    0
   #pairs with 16 - 20 PNOs   :    0
   #pairs with 21 - 25 PNOs   :    0
   #pairs with 26 - 30 PNOs   :    0
   #pairs with 31 - 35 PNOs   :    0
   #pairs with 36 - 40 PNOs   :    0
   #pairs with 41 - 45 PNOs   :    0
   #pairs with 46 - 50 PNOs   :    0

Generation of (ij|ab)[P] integrals            ... on
Generation of (ia|bc)[P],(ja|bc)[P] integrals ... on
Storage of 3 and 4 external integrals         ... on
Generation of ALL (ka|bc)[P] integrals        ... on
Keep RI integrals in memory                   ... off

Ibatch:  1 (of  1)
Starting 2-4 index PNO integral generation ... done

Timings:
Total PNO integral transformation time     ...          0.842 sec
Size of the 3-external file                ...         0 MB
Size of the 4-external file                ...         0 MB
Size of the IKJL file                      ...         0 MB
Size of the all 3-external file            ...         1 MB
Size of the 1-external file                ...         0 MB

Making pair/pair overlap matrices          ... done (    0.132 sec)
Size of the pair overlap file              ... 1 MB
Redoing the guess amplitudes               ... done (    0.000 sec)

-------------------------
FINAL STARTUP INFORMATION
-------------------------

E(0)                                       ...  -1580.396231132
E(SL-MP2)                                  ...     -0.004104018
E(SL-MP2) including corrections            ...     -0.004104018
Initial E(tot)                             ...  -1580.400335150
<T|T>                                      ...      0.001505502
Number of pairs included                   ... 48
Total number of pairs                      ... 78

------------------------------------------------
                  RHF COUPLED CLUSTER ITERATIONS
------------------------------------------------

Number of PNO amplitudes to be optimized   ...         3020
Number of non-PNO amplitudes               ...       139968
Untruncated number of regular amplitudes   ...       227448

Iter       E(tot)           E(Corr)          Delta-E          Residual     Time
  0  -1580.400334637     -0.003991485      0.000112533      0.000634920    0.17
                           *** Turning on DIIS ***
  1  -1580.400120592     -0.003777440      0.000214045      0.000128845    0.14
  2  -1580.400142957     -0.003799805     -0.000022365      0.000036147    0.12
  3  -1580.400144307     -0.003801155     -0.000001351      0.000012362    0.11
  4  -1580.400144785     -0.003801633     -0.000000478      0.000001523    0.10
  5  -1580.400144852     -0.003801700     -0.000000066      0.000000416    0.09
               --- The Coupled-Cluster iterations have converged ---

----------------------
COUPLED CLUSTER ENERGY
----------------------

E(0)                                       ...  -1580.396231132
E(CORR)(strong-pairs)                      ...     -0.003801700
E(CORR)(weak-pairs)                        ...     -0.000112020
E(CORR)(corrected)                         ...     -0.003913719
E(TOT)                                     ...  -1580.400144852
Singles Norm <S|S>**1/2                    ...      0.002128215  
T1 diagnostic                              ...      0.000434420  

------------------
LARGEST AMPLITUDES
------------------
  23-> 27  16-> 27       0.001679
  19-> 27  15-> 27       0.001643
  26-> 27  21-> 27       0.001636
  19-> 27  18-> 27       0.001377
  19-> 27  17-> 27       0.001356
  23-> 27  17-> 27       0.001353
  23-> 27  18-> 27       0.001344
  21-> 29  18-> 29       0.001267
  23-> 30  16-> 27       0.001245
  23-> 27  16-> 30       0.001243
  25-> 28  18-> 28       0.001242
  19-> 27  15-> 30       0.001241
  26-> 27  21-> 32       0.001240
  19-> 30  15-> 27       0.001215
  26-> 27  20-> 27       0.001204
  22-> 28  17-> 28       0.001204


 ===========================================================
         LOCAL ENERGY DECOMPOSITION FOR DLPNO-CC METHODS
 ===========================================================

Maximum Iterations for the Localization .. 600
Tolerance for the Localization          ..  1.00e-06
Number of fragments = 3
Fragment  1:  0
Fragment  2:  1
Fragment  3:  2

Populations of internal orbitals onto Fragments:
   0:      1.000    0.000    0.000  assigned to fragment   1
   1:      1.000    0.000    0.000  assigned to fragment   1
   2:      1.000    0.000    0.000  assigned to fragment   1
   3:      1.000    0.000    0.000  assigned to fragment   1
   4:      1.000    0.000    0.000  assigned to fragment   1
   5:      0.000    1.000    0.000  assigned to fragment   2
   6:      0.000    1.000    0.000  assigned to fragment   2
   7:      0.000    1.000    0.000  assigned to fragment   2
   8:      0.000    1.000    0.000  assigned to fragment   2
   9:      0.000    1.000    0.000  assigned to fragment   2
  10:      0.000    0.000    1.000  assigned to fragment   3
  11:      0.000    0.000    1.000  assigned to fragment   3
  12:      0.000    0.000    1.000  assigned to fragment   3
  13:      0.000    0.000    1.000  assigned to fragment   3
  14:      0.000    0.000    1.000  assigned to fragment   3
  15:      1.000    0.001    0.000  assigned to fragment   1
  16:      1.000    0.000    0.001  assigned to fragment   1
  17:      1.001    0.001    0.001  assigned to fragment   1
  18:      1.001    0.001    0.001  assigned to fragment   1
  19:      0.001    1.001    0.000  assigned to fragment   2
  20:      0.000    1.000    0.000  assigned to fragment   2
  21:      0.000    1.000    0.000  assigned to fragment   2
  22:      0.000    1.000    0.000  assigned to fragment   2
  23:      0.001    0.000    1.001  assigned to fragment   3
  24:      0.000    0.000    1.000  assigned to fragment   3
  25:      0.000    0.000    1.000  assigned to fragment   3
  26:      0.000    0.000    1.001  assigned to fragment   3

Summary assignment:
   9 orbitals assigned to fragment   1
   9 orbitals assigned to fragment   2
   9 orbitals assigned to fragment   3


--------------------------------
CORRELATION ENERGY DECOMPOSITION
--------------------------------


--------------------------------------------------
INTER- vs INTRA-FRAGMENT CORRELATION ENERGIES (Eh)
--------------------------------------------------

                                   Fragment   1            Fragment   2            Fragment   3            
                         ----------------------  ----------------------  ----------------------  
Intra strong pairs               0.000000000000         0.000000000000         0.000000000000  sum=        0.000000000000
Intra weak pairs                 0.000000000000         0.000000000000         0.000000000000  sum=        0.000000000000
Singles contribution            -0.000000000200        -0.000000000121        -0.000000000107  sum=       -0.000000000428
                         ----------------------  ----------------------  ----------------------  
                                -0.000000000200        -0.000000000121        -0.000000000107  sum=       -0.000000000428


Interaction correlation for Fragments   2 and   1:
--------------------------------------------------
Inter strong pairs               -0.001525522852 (   -0.957 kcal/mol)
Inter weak pairs                 -0.000044994707 (   -0.028 kcal/mol)
                          ----------------------
Total interaction                -0.001570517559 (   -0.986 kcal/mol)

Interaction correlation for Fragments   3 and   1:
--------------------------------------------------
Inter strong pairs               -0.001525959454 (   -0.958 kcal/mol)
Inter weak pairs                 -0.000044409969 (   -0.028 kcal/mol)
                          ----------------------
Total interaction                -0.001570369424 (   -0.985 kcal/mol)
Interaction correlation for Fragments   3 and   2:
--------------------------------------------------
Inter strong pairs               -0.000750216995 (   -0.471 kcal/mol)
Inter weak pairs                 -0.000022614992 (   -0.014 kcal/mol)
                          ----------------------
Total interaction                -0.000772831987 (   -0.485 kcal/mol)



Sum of INTRA-fragment correlation energies  =        -0.000000000428
Sum of INTER-fragment correlation energies  =        -0.003913718969
                                              ---------------------
Total correlation energy                    =        -0.003913719398

---------------------------------------------
DECOMPOSITION OF CCSD STRONG PAIRS INTO      
    DOUBLE EXCITATION TYPES (Eh)             
---------------------------------------------

Foster-Boys localization is used for localizing PNOs

Intra fragment contributions: 
INTRA Fragment 1                        0.000000000 
INTRA Fragment 2                        0.000000000 
INTRA Fragment 3                        0.000000000 

Charge transfer contributions: 
Charge Transfer 1 to 2                 -0.000090753 
Charge Transfer 1 to 3                 -0.000078400 
Charge Transfer 2 to 1                 -0.000083164 
Charge Transfer 2 to 3                 -0.000016167 
Charge Transfer 3 to 1                 -0.000084715 
Charge Transfer 3 to 2                 -0.000020285 

Dispersion contributions: 
Dispersion  2,1                        -0.001351606 
Dispersion  3,1                        -0.001362844 
Dispersion  3,2                        -0.000713765 

Singles contributions:                   
Singles energy                         -0.000000000 
 
Delocalized contributions: 
Delocalized correlation                 0.000000000 

#Time for LED analysis ..       0.0 (sec)



--------------------------------------------------------------------------------
                                    TIMINGS
--------------------------------------------------------------------------------


Total execution time                   ...        9.728 sec

Localization of occupied MO's          ...        0.157 sec (  1.6%)
Fock Matrix Formation                  ...        1.849 sec ( 19.0%)
Global overlap, Fock, MKN matrices     ...        0.224 sec (  2.3%)
Differential overlap integrals         ...        0.353 sec (  3.6%)
Organizing maps                        ...        0.006 sec (  0.1%)
RI 3-index integral generations        ...        3.045 sec ( 31.3%)
RI-PNO integral transformation         ...        2.211 sec ( 22.7%)
Initial Guess                          ...        0.704 sec (  7.2%)
DIIS Solver                            ...        0.009 sec (  0.1%)
State Vector Update                    ...        0.000 sec (  0.0%)
Sigma-vector construction              ...        0.730 sec (  7.5%)
  <D|H|D>(0-ext)                       ...        0.078 sec ( 10.7% of sigma)
  <D|H|D>(2-ext Fock)                  ...        0.001 sec (  0.2% of sigma)
  <D|H|D>(2-ext)                       ...        0.158 sec ( 21.7% of sigma)
  <D|H|D>(4-ext)                       ...        0.007 sec (  0.9% of sigma)
  <D|H|D>(4-ext-corr)                  ...        0.023 sec (  3.1% of sigma)
  CCSD doubles correction              ...        0.015 sec (  2.0% of sigma)
  <S|H|S>                              ...        0.040 sec (  5.5% of sigma)
  <S|H|D>(1-ext)                       ...        0.036 sec (  4.9% of sigma)
  <D|H|S>(1-ext)                       ...        0.001 sec (  0.2% of sigma)
  <S|H|D>(3-ext)                       ...        0.005 sec (  0.7% of sigma)
  Fock-dressing                        ...        0.232 sec ( 31.7% of sigma)
  Singles amplitudes                   ...        0.012 sec (  1.7% of sigma)
  (ik|jl)-dressing                     ...        0.059 sec (  8.1% of sigma)
  (ij|ab),(ia|jb)-dressing             ...        0.056 sec (  7.7% of sigma)
Local Energy Decomposition             ...        0.029 sec (  0.3% of ALL)


Maximum memory used throughout the entire MDCI-calculation: 82.0 MB
----------------------------   ----------------
Inter-fragment dispersion       -0.003540235
----------------------------   ----------------


-------------------------   --------------------
FINAL SINGLE POINT ENERGY     -1580.399771367073 
-------------------------   --------------------


------------------------------------------------------------------------------
                              ORCA PROPERTY CALCULATIONS
------------------------------------------------------------------------------

GBWName                                 ... AR3LD_3.6_3.2_3.2.gbw
Number of atoms                         ...      3
Number of basis functions               ...    150
Max core memory                         ...   1024 MB

Electric properties:
Dipole moment                           ... YES
Quadrupole moment                       ...  NO
Static polarizability (Dipole/Dipole)   ...  NO
Static polarizability (Dipole/Quad.)    ...  NO
Static polarizability (Quad./Quad.)     ...  NO
Static polarizability (Velocity)        ...  NO

Atomic electric properties:
Dipole moment                           ...  NO
Quadrupole moment                       ...  NO
Static polarizability                   ...  NO

Choice of electric origin               ... Center of mass
Position of electric origin             ...     2.755851     1.874905     0.000000

General magnetic properties:
Magnetizability                         ...  NO

EPR properties:
g-Tensor (aka g-matrix)                 ...  NO
Zero-Field splitting spin-orbit         ...  NO
Zero-field splitting spin-spin          ...  NO
Hyperfine couplings                     ...  NO (   0 nuclei)
Quadrupole couplings                    ...  NO (   0 nuclei)
Contact density                         ...  NO (   0 nuclei)

NMR properties:
Chemical shifts                         ...  NO (   0 nuclei)
Spin-rotation constants                 ...  NO (   0 nuclei)
Spin-spin couplings                     ...  NO (   0 nuclei,    0 pairs)

Choice of magnetic origin               ... GIAO
Position of magnetic origin             ...     0.000000     0.000000     0.000000

Properties with geometric perturbations:
SCF Hessian                             ...  NO
IR spectrum                             ...  NO
VCD spectrum                            ...  NO
X-ray spectroscopy properties:
SCF XES/XAS/RIXS spectra                ...  NO


-------------
DIPOLE MOMENT
-------------

Method             : SCF
Type of density    : Electron Density
Multiplicity       :   1
Irrep              :   0
Energy             : -1580.3962311321001835 Eh
Relativity type    : 
Basis              : AO
                                X                 Y                 Z
Electronic contribution:      0.000271777       0.000184913       0.000000000
Nuclear contribution   :      0.000000000      -0.000000000       0.000000000
                        -----------------------------------------
Total Dipole Moment    :      0.000271777       0.000184913       0.000000000
                        -----------------------------------------
Magnitude (a.u.)       :      0.000328718
Magnitude (Debye)      :      0.000835534



--------------------
Rotational spectrum 
--------------------
 
Rotational constants in cm-1:             0.090426             0.065122             0.037858 
Rotational constants in MHz :          2710.914258          1952.304507          1134.952142 

Dipole components along the rotational axes: 
x,y,z [a.u.] :    -0.000000    -0.000329     0.000000 
x,y,z [Debye]:    -0.000000    -0.000836     0.000000 

 

Dipole moment calculation done in   0.0 sec 

Maximum memory used throughout the entire PROP-calculation: 6.8 MB

--------------------------------
SUGGESTED CITATIONS FOR THIS RUN
--------------------------------

Below you find a list of papers that are relevant to this ORCA run
We neither can nor want to force you to cite these papers, but we appreciate if you do
You receive ORCA, which is the product of decades of hard work by many enthusiastic individuals, for free
The only thing we kindly ask in return is that you cite our papers,
We deeply appreciate it, if you show your appreciation for ORCA by not just citing the generic ORCA reference.

Please note that relegating all ORCA citations to the supporting information does *not* help us.
SI sections are not indexed - citations you put there will not count into any citation statistics
But we need these citations in order to attract the funding resources that allow us to do what we are doing

Therefore, if you are a happy ORCA user, please consider citing a few of the papers listed below in the main body of your paper

In addition to the list printed below, the program has created the file AR3LD_3.6_3.2_3.2.bibtex that contains the list in bibtex format
You can import this file easily into all common literature databanks and citation aid programs


List of essential papers. We consider these as the minimum necessary citations

  1. Neese,F.
     Software update: the ORCA program system, version 5.0
     WIRES Comput. Molec. Sci., 2022 12(1)e1606
     doi.org/10.1002/wcms.1606

List of papers to cite with high priority. The work reported in these papers was absolutely
necessary for this run to complete.
Our perspective: the developers of density functionals and basis sets usually get cited in chemistry papers
Good! But without the algorithms to do something with them, the functionals or basis sets would not do anything.
Hence, in our opinion, the algorithm design and method developments papers are equally worthy of getting cited

  1. Neese,F.; Hansen,A.; Liakos,D.G.
     Efficient and accurate approximations to the local coupled cluster singles doubles method using a truncated pair natural orbital basis
     J. Chem. Phys., 2009 131 064103
     doi.org/10.1063/1.3173827
  2. Neese,F.; Wennmohs,F.; Hansen,A.
     Efficient and accurate local approximations to coupled-electron pair approaches: An attempt to revive the pair natural orbital method
     J. Chem. Phys., 2009 130 114108
     doi.org/10.1063/1.3086717
  3. Riplinger,C.; Neese,F.
     An efficient and near linear scaling pair natural orbital based local coupled cluster method
     J. Chem. Phys., 2013 138(3)Art. No. 034106
     doi.org/10.1063/1.4773581
  4. Datta,D.; Kossmann,S.; Neese,F.
     Analytic energy derivatives for the calculation of the first-order molecular properties using the domain-based local pair-natural orbital coupled-cluster theory
     J. Chem. Phys., 2016 145 
     doi.org/10.1063/1.4962369
  5. Riplinger,C.; Pinski,P.; Becker,U.; Valeev,E.F.; Neese,F.
     Sparse maps-A systematic infrastructure for reduced-scaling electronic structure methods. II. Linear scaling domain based pair natural orbital coupled cluster theory
     J. Chem. Phys., 2016 144 
     doi.org/10.1063/1.4939030
  6. Schneider,W.B.; Bistoni,G.; Sparta,M.; Saitow,M.; Riplinger,C.; Auer,A.A.; Neese,F.
     Decomposition of Intermolecular Interaction Energies within the Local Pair Natural Orbital Coupled Cluster Framework
     J. Theo. Comp. Chem., 2016 12 4778-4792
     doi.org/10.1021/acs.jctc.6b00523
  7. Bistoni,G.; Riplinger,C.; Minenkov,Y.; Cavallo,L.; Auer,A.A.; Neese,F.
     Treating Subvalence Correlation Effects in Domain Based Pair Natural Orbital Coupled Cluster Calculations: An Out-of-the-Box Approach
     J. Theo. Comp. Chem., 2017 13 3220-3227
     doi.org/10.1021/acs.jctc.7b00352
  8. Altun,A.; Neese,F.; Bistoni,G.
     HFLD: A Nonempirical London Dispersion-Corrected Hartree-Fock Method for the Quantification and Analysis of Noncovalent Interaction Energies of Large Molecular Systems
     J. Chem. Theory Comput., 2019 15 5894-5907
     doi.org/10.1021/acs.jctc.9b00425
  9. Neese,F.
     The SHARK Integral Generation and Digestion System
     J. Comp. Chem., 2022  1-16
     doi.org/10.1002/jcc.26942
 10. Altun,A.; Neese,F.; Bistoni,G.
     Open-Shell Variant of the London Dispersion-Corrected Hartree–Fock Method (HFLD) for the Quantification and Analysis of Noncovalent Interaction Energies
     J. Chem. Theory Comput., 2022 XX XXXX-XXXX
     doi.org/10.1021/acs.jctc.1c01295

List of suggested additional citations. These are papers that are important in the 'surrounding' of 
of this run, or papers that preceded the highly important papers. If you like your results we are grateful for a citation.

  1. Neese,F.
     The ORCA program system
     WIRES Comput. Molec. Sci., 2012 2(1)73-78
     doi.org/10.1002/wcms.81
  2. Neese,F.
     Software update: the ORCA program system, version 4.0
     WIRES Comput. Molec. Sci., 2018 8(1)1-6
     doi.org/10.1002/wcms.1327
  3. Neese,F.; Wennmohs,F.; Becker,U.; Riplinger,C.
     The ORCA quantum chemistry program package
     J. Chem. Phys., 2020 152 Art. No. L224108
     doi.org/10.1063/5.0004608
  4. Bistoni,G.
     Finding chemical concepts in the Hilbert space: Coupled cluster analyses of noncovalent interactions
     WIRES Comput. Molec. Sci., 2020 10(3)e1442
     doi.org/10.1002/wcms.1442

List of optional additional citations

  1. Neese,F.
     Approximate second-order SCF convergence for spin unrestricted wavefunctions
     Chem. Phys. Lett., 2000 325(1-3)93-98
     doi.org/10.1016/s0009-2614(00)00662-x

Timings for individual modules:

Sum of individual times          ...       15.376 sec (=   0.256 min)
Startup calculation              ...        1.265 sec (=   0.021 min)   8.2 %
SCF iterations                   ...        4.016 sec (=   0.067 min)  26.1 %
Property integrals               ...        0.110 sec (=   0.002 min)   0.7 %
Property calculations            ...        0.209 sec (=   0.003 min)   1.4 %
MDCI module                      ...        9.776 sec (=   0.163 min)  63.6 %
                             ****ORCA TERMINATED NORMALLY****
TOTAL RUN TIME: 0 days 0 hours 0 minutes 15 seconds 498 msec
