
                                 *****************
                                 * O   R   C   A *
                                 *****************

                                            #,                                       
                                            ###                                      
                                            ####                                     
                                            #####                                    
                                            ######                                   
                                           ########,                                 
                                     ,,################,,,,,                         
                               ,,#################################,,                 
                          ,,##########################################,,             
                       ,#########################################, ''#####,          
                    ,#############################################,,   '####,        
                  ,##################################################,,,,####,       
                ,###########''''           ''''###############################       
              ,#####''   ,,,,##########,,,,          '''####'''          '####       
            ,##' ,,,,###########################,,,                        '##       
           ' ,,###''''                  '''############,,,                           
         ,,##''                                '''############,,,,        ,,,,,,###''
      ,#''                                            '''#######################'''  
     '                                                          ''''####''''         
             ,#######,   #######,   ,#######,      ##                                
            ,#'     '#,  ##    ##  ,#'     '#,    #''#        ,####,   ,####,        
            ##       ##  ##   ,#'  ##            #'  '#       #'       #'  '#        
            ##       ##  #######   ##           ,######,      #####,   #    #        
            '#,     ,#'  ##    ##  '#,     ,#' ,#      #,     #,   #   #,  ,#        
             '#######'   ##     ##  '#######'  #'      '#     '####' # '####'        



                #########################################################
                #                        -***-                          #
                #          Department of theory and spectroscopy        #
                #                                                       #
                #                      Frank Neese                      #
                #                                                       #
                #     Directorship, Architecture, Infrastructure        #
                #                    SHARK, DRIVERS                     #
                #        Core code/Algorithms in most modules           #
                #                                                       #
                #        Max Planck Institute fuer Kohlenforschung      #
                #                Kaiser Wilhelm Platz 1                 #
                #                 D-45470 Muelheim/Ruhr                 #
                #                      Germany                          #
                #                                                       #
                #                  All rights reserved                  #
                #                        -***-                          #
                #########################################################


                         Program Version 6.0.0  -   RELEASE  -


 With contributions from (in alphabetic order):
   Daniel Aravena         : Magnetic Suceptibility
   Michael Atanasov       : Ab Initio Ligand Field Theory (pilot matlab implementation)
   Alexander A. Auer      : GIAO ZORA, VPT2 properties, NMR spectrum
   Ute Becker             : All parallelization in ORCA, NUMFREQ, NUMCALC
   Giovanni Bistoni       : ED, misc. LED, open-shell LED, HFLD
   Martin Brehm           : Molecular dynamics
   Dmytro Bykov           : pre 5.0 version of the SCF Hessian
   Marcos Casanova-Páez   : Triplet and SCS-CIS(D). UHF-(DLPNO)-IP/EA/STEOM-CCSD. UHF-CVS-IP/STEOM-CCSD
   Vijay G. Chilkuri      : MRCI spin determinant printing, contributions to CSF-ICE
   Pauline Colinet        : FMM embedding
   Dipayan Datta          : RHF DLPNO-CCSD density
   Achintya Kumar Dutta   : EOM-CC, STEOM-CC
   Nicolas Foglia         : Exact transition moments, OPA infrastructure, MCD improvements
   Dmitry Ganyushin       : Spin-Orbit,Spin-Spin,Magnetic field MRCI
   Miquel Garcia          : C-PCM and meta-GGA Hessian, CCSD/C-PCM, Gaussian charge scheme
   Tiago L. C. Gouveia    : GS-ROHF, GS-ROCIS
   Yang Guo               : DLPNO-NEVPT2, F12-NEVPT2, CIM, IAO-localization
   Andreas Hansen         : Spin unrestricted coupled pair/coupled cluster methods
   Ingolf Harden          : AUTO-CI MPn and infrastructure 
   Benjamin Helmich-Paris : MC-RPA, TRAH-(SCF,CASSCF), AVAS, COSX integrals, SCF dyn. polar.
   Lee Huntington         : MR-EOM, pCC
   Robert Izsak           : Overlap fitted RIJCOSX, COSX-SCS-MP3, EOM
   Riya Kayal             : Wick's Theorem for AUTO-CI, AUTO-CI UHF-CCSDT
   Emily Kempfer          : AUTO-CI, RHF CISDT and CCSDT
   Christian Kollmar      : KDIIS, OOCD, Brueckner-CCSD(T), CCSD density, CASPT2, CASPT2-K, improved NEVPT2
   Axel Koslowski         : Symmetry handling
   Simone Kossmann        : Meta GGA functionals, TD-DFT gradient, OOMP2, (MP2 Hessian; deprecated post 5.0)
   Lucas Lang             : DCDCAS
   Marvin Lechner         : AUTO-CI (C++ implementation), FIC-MRCC
   Spencer Leger          : CASSCF response
   Dagmar Lenk            : GEPOL surface, SMD, ORCA-2-JSON
   Dimitrios Liakos       : Extrapolation schemes; Compound Job, initial MDCI parallelization
   Dimitrios Manganas     : Further ROCIS development; embedding schemes. LFT, Crystal Embedding
   Dimitrios Pantazis     : SARC Basis sets
   Anastasios Papadopoulos: AUTO-CI, single reference methods and gradients
   Taras Petrenko         : pre 6.0 DFT Hessian and TD-DFT gradient, (ASA, deprecated), ECA, 1-Electron XAS/XES, NRVS
   Peter Pinski           : DLPNO-MP2, DLPNO-MP2 Gradient
   Christoph Reimann      : Effective Core Potentials
   Marius Retegan         : Local ZFS, SOC
   Christoph Riplinger    : Optimizer, TS searches, QM/MM, DLPNO-CCSD(T), (RO)-DLPNO pert. Triples
   Michael Roemelt        : Original ROCIS implementation
   Masaaki Saitow         : Open-shell DLPNO-CCSD energy and density
   Barbara Sandhoefer     : DKH picture change effects
   Kantharuban Sivalingam : CASSCF convergence/infrastructure, NEVPT2 and variants, FIC-MRCI
   Bernardo de Souza      : ESD, SOC TD-DFT
   Georgi Stoychev        : AutoAux, RI-MP2 NMR, DLPNO-MP2 response, X2C
   Van Anh Tran           : RI-MP2 g-tensors
   Willem Van den Heuvel  : Paramagnetic NMR
   Zikuan Wang            : NOTCH, Electric field optimization 
   Frank Wennmohs         : Technical directorship and infrastructure
   Hang Xu                : AUTO-CI-Response properties 


 We gratefully acknowledge several colleagues who have allowed us to
 interface, adapt or use parts of their codes:
   Stefan Grimme, W. Hujo, H. Kruse, P. Pracht,  : VdW corrections, initial TS optimization,
                  C. Bannwarth, S. Ehlert,         DFT functionals, gCP, sTDA/sTD-DF
                  L. Wittmann, M. Mueller
   Ed Valeev, F. Pavosevic, A. Kumar             : LibInt (2-el integral package), F12 methods
   Garnet Chan, S. Sharma, J. Yang, R. Olivares  : DMRG
   Ulf Ekstrom                                   : XCFun DFT Library
   Mihaly Kallay                                 : mrcc  (arbitrary order and MRCC methods)
   Frank Weinhold                                : gennbo (NPA and NBO analysis)
   Simon Mueller                                 : openCOSMO-RS
   Christopher J. Cramer and Donald G. Truhlar   : smd solvation model
   Lars Goerigk                                  : TD-DFT with DH, B97 family of functionals
   V. Asgeirsson, H. Jonsson                     : NEB implementation
   FAccTs GmbH                                   : IRC, NEB, NEB-TS, DLPNO-Multilevel, CI-OPT
                                                   MM, QMMM, 2- and 3-layer-ONIOM, Crystal-QMMM,
                                                   LR-CPCM, SF, NACMEs, symmetry and pop. for TD-DFT,
                                                   nearIR, NL-DFT gradient (VV10), updates on ESD,
                                                   ML-optimized integration grids, MBIS, APM,
                                                   GOAT, DOCKER, SOLVATOR, interface openCOSMO-RS
   S Lehtola, MJT Oliveira, MAL Marques          : LibXC Library
   Liviu Ungur et al                             : ANISO software


 Your calculation uses the libint2 library for the computation of 2-el integrals
 For citations please refer to: http://libint.valeyev.net

 Your ORCA version has been built with support for libXC version: 6.2.2
 For citations please refer to: https://libxc.gitlab.io

 This ORCA versions uses:
   CBLAS   interface :  Fast vector & matrix operations
   LAPACKE interface :  Fast linear algebra routines
   SCALAPACK package :  Parallel linear algebra routines
   Shared memory     :  Shared parallel matrices
   BLAS/LAPACK       :  OpenBLAS 0.3.27  USE64BITINT DYNAMIC_ARCH NO_AFFINITY Haswell SINGLE_THREADED
        Core in use  :  Haswell
   Copyright (c) 2011-2014, The OpenBLAS Project


================================================================================

----- Orbital basis set information -----
Your calculation utilizes the basis: aug-cc-pVDZ 
    H, B-Ne : Obtained from the ccRepo (grant-hill.group.shef.ac.uk/ccrepo) Feb. 2017
              R. A. Kendall, T. H. Dunning, Jr., R. J. Harrison, J. Chem. Phys. 96, 6796 (1992)
         He : Obtained from the ccRepo (grant-hill.group.shef.ac.uk/ccrepo) Feb. 2017
              D. E. Woon, T. H. Dunning, Jr., J. Chem. Phys. 100, 2975 (1994)
  Li-Be, Na : Obtained from the ccRepo (grant-hill.group.shef.ac.uk/ccrepo) Feb. 2017
              B. P. Prascher, D. E. Woon, K. A. Peterson, T. H. Dunning, Jr., A. K. Wilson, Theor. Chem. Acc. 128, 69 (2011)
         Mg : Obtained from the Peterson Research Group Website (tyr0.chem.wsu.edu/~kipeters) Feb. 2017
              B. P. Prascher, D. E. Woon, K. A. Peterson, T. H. Dunning, Jr., A. K. Wilson, Theor. Chem. Acc. 128, 69 (2011)
      Al-Ar : Obtained from the ccRepo (grant-hill.group.shef.ac.uk/ccrepo) Feb. 2017
              D. E. Woon, T. H. Dunning, Jr., J. Chem. Phys. 98, 1358 (1993)
      Sc-Zn : Obtained from the ccRepo (grant-hill.group.shef.ac.uk/ccrepo) Feb. 2017
              N. B. Balabanov, K. A. Peterson, J. Chem. Phys. 123, 064107 (2005)
              N. B. Balabanov, K. A. Peterson, J. Chem. Phys. 125, 074110 (2006)
      Ga-Kr : Obtained from the ccRepo (grant-hill.group.shef.ac.uk/ccrepo) Feb. 2017
              A. K. Wilson, D. E. Woon, K. A. Peterson, T. H. Dunning, Jr., J. Chem. Phys. 110, 7667 (1999)

----- AuxC basis set information -----
Your calculation utilizes the auxiliary basis: aug-cc-pVDZ/C 
  H-He, B, Ne, Al-Ar, Ga-Ge, Se-Br : Obtained from the EMSL Basis Set Exchange (bse.pnl.gov) Feb. 2017
                                     F. Weigend, A. Kohn, C. Hattig, J. Chem. Phys. 116, 3175 (2002)
                            Be, Mg : Obtained from the TURBOMOLE 7.0 basis set library
                                     C. Haettig, Phys. Chem. Chem. Phys. 7, 59 (2005)
                               C-F : Obtained from the EMSL Basis Set Exchange (bse.pnl.gov) Feb. 2017
                                     C. Haettig, Phys. Chem. Chem. Phys. 7, 59 (2005)
                                     F. Weigend, A. Kohn, C. Hattig, J. Chem. Phys. 116, 3175 (2002)
                                As : Obtained from the EMSL Basis Set Exchange (bse.pnl.gov) Feb. 2017
                                     C. Haettig, G. Schmitz, J. Kossmann, Phys. Chem. Chem. Phys. 14, 6549 (2012)
                                Kr : Obtained from the TURBOMOLE 7.0 basis set library
                                     F. Weigend, A. Kohn, C. Hattig, J. Chem. Phys. 116, 3175 (2002)
                                     S function revised in Sep. 2009

================================================================================
                                        WARNINGS
                       Please study these warnings very carefully!
================================================================================


WARNING: Post HF methods need fully converged wavefunctions
  ===> : Setting SCFConvForced true
         You can overwrite this default with %scf ConvForced false 


================================================================================
                                       INPUT FILE
================================================================================
NAME = AR3LD_3.2_2.8_4.8.inp
|  1> # MP2 scan of the potential energy curve for Ar...Ar
|  2>                 ! HFLD aug-cc-pvdz aug-cc-pvdz/C verytightscf
|  3>                 *xyz 0 1
|  4>                 Ar(1)	0    0	0.00000000000000
|  5>                 Ar(2)	4.8	0    0.00000000000000
|  6>                 Ar(3)	2.15	1.7937391114652095    0.00000000000000
|  7>                 **                         ****END OF INPUT****
================================================================================

                       ****************************
                       * Single Point Calculation *
                       ****************************

---------------------------------
CARTESIAN COORDINATES (ANGSTROEM)
---------------------------------
  Ar     0.000000    0.000000    0.000000
  Ar     4.800000    0.000000    0.000000
  Ar     2.150000    1.793739    0.000000

----------------------------
CARTESIAN COORDINATES (A.U.)
----------------------------
  NO LB      ZA    FRAG     MASS         X           Y           Z
   0 Ar   18.0000    1    39.948    0.000000    0.000000    0.000000
   1 Ar   18.0000    2    39.948    9.070685    0.000000    0.000000
   2 Ar   18.0000    3    39.948    4.062911    3.389676    0.000000

----------------------------------------------
CARTESIAN COORDINATES OF FRAGMENTS (ANGSTROEM)
----------------------------------------------

 FRAGMENT 1 
  Ar    0.000000    0.000000    0.000000

 FRAGMENT 2 
  Ar    4.800000    0.000000    0.000000

 FRAGMENT 3 
  Ar    2.150000    1.793739    0.000000

--------------------------------
INTERNAL COORDINATES (ANGSTROEM)
--------------------------------
 Ar     0   0   0     0.000000000000     0.00000000     0.00000000
 Ar     1   0   0     4.800000000000     0.00000000     0.00000000
 Ar     1   2   0     2.800000000000    39.83814981     0.00000000

---------------------------
INTERNAL COORDINATES (A.U.)
---------------------------
 Ar     0   0   0     0.000000000000     0.00000000     0.00000000
 Ar     1   0   0     9.070685442822     0.00000000     0.00000000
 Ar     1   2   0     5.291233174980    39.83814981     0.00000000

---------------------
BASIS SET INFORMATION
---------------------
There are 1 groups of distinct atoms

 Group   1 Type Ar  : 35s16p2d contracted to 5s4p2d pattern {11111111/7711/11}

Atom   0Ar   basis set group =>   1
Atom   1Ar   basis set group =>   1
Atom   2Ar   basis set group =>   1
---------------------------------
AUXILIARY/C BASIS SET INFORMATION
---------------------------------
There are 1 groups of distinct atoms

 Group   1 Type Ar  : 10s8p6d4f contracted to 10s8p6d4f pattern {1111111111/11111111/111111/1111}

Atom   0Ar   basis set group =>   1
Atom   1Ar   basis set group =>   1
Atom   2Ar   basis set group =>   1
------------------------------------------------------------------------------
                             ORCA STARTUP CALCULATIONS
------------------------------------------------------------------------------
------------------------------------------------------------------------------
                   ___                                                        
                  /   \      - P O W E R E D   B Y -                         
                 /     \                                                     
                 |  |  |   _    _      __       _____    __    __             
                 |  |  |  | |  | |    /  \     |  _  \  |  |  /  |          
                  \  \/   | |  | |   /    \    | | | |  |  | /  /          
                 / \  \   | |__| |  /  /\  \   | |_| |  |  |/  /          
                |  |  |   |  __  | /  /__\  \  |    /   |      \           
                |  |  |   | |  | | |   __   |  |    \   |  |\   \          
                \     /   | |  | | |  |  |  |  | |\  \  |  | \   \       
                 \___/    |_|  |_| |__|  |__|  |_| \__\ |__|  \__/        
                                                                              
                      - O R C A' S   B I G   F R I E N D -                    
                                      &                                       
                       - I N T E G R A L  F E E D E R -                       
                                                                              
 v1 FN, 2020, v2 2021, v3 2022-2024                                           
------------------------------------------------------------------------------


----------------------
SHARK INTEGRAL PACKAGE
----------------------

Number of atoms                             ...      3
Number of basis functions                   ...    150
Number of shells                            ...     72
Maximum angular momentum                    ...      2
Integral batch strategy                     ... SHARK/LIBINT Hybrid
RI-J (if used) integral strategy            ... SPLIT-RIJ (Revised 2003 algorithm where possible)
Printlevel                                  ...      1
Contraction scheme used                     ... PARTIAL GENERAL contraction
Prescreening option                         ... SCHWARTZ
   Thresh                                   ... 1.000e-12
   Tcut                                     ... 1.000e-14
   Tpresel                                  ... 1.000e-14 
Coulomb Range Separation                    ... NOT USED
Exchange Range Separation                   ... NOT USED
Multipole approximations                    ... NOT USED
Finite Nucleus Model                        ... NOT USED
CABS basis                                  ... NOT available
Auxiliary Coulomb fitting basis             ... NOT available
Auxiliary J/K fitting basis                 ... NOT available
Auxiliary Correlation fitting basis         ... AVAILABLE
   # of basis functions in Aux-C            ...    276
   # of shells in Aux-C                     ...     84
   Maximum angular momentum in Aux-C        ...      3
Auxiliary 'external' fitting basis          ... NOT available

Checking pre-screening integrals            ... done (  0.0 sec) Dimension = 72
Save PGC pre-screening integrals            ... done (  0.0 sec) Dimension = 72
Calculate PGC overlap integrals             ... done (  0.0 sec) Dimension = 33
Calculating pre-screening integrals (ORCA)  ... done (  0.2 sec) Dimension = 33
Check shell pair data                       ... done (  0.0 sec)
Shell pair information
Shell pair cut-off parameter TPreSel        ...   1.0e-14
Total number of shell pairs                 ...      2628
Shell pairs after pre-screening             ...      1772
Total number of primitive shell pairs       ...      2628
Primitive shell pairs kept                  ...      1770
          la=0 lb=0:    460 shell pairs
          la=1 lb=0:    663 shell pairs
          la=1 lb=1:    264 shell pairs
          la=2 lb=0:    214 shell pairs
          la=2 lb=1:    150 shell pairs
          la=2 lb=2:     21 shell pairs

Calculating one electron integrals          ... done (  0.0 sec)
Calculating RI/C V-Matrix + Cholesky decomp.... done (  0.0 sec)
Calculating Nuclear repulsion               ... done (  0.0 sec) ENN=    150.532016575339 Eh

Diagonalization of the overlap matrix:
Smallest eigenvalue                        ... 1.585e-02
Time for diagonalization                   ...    0.001 sec
Threshold for overlap eigenvalues          ... 1.000e-07
Number of eigenvalues below threshold      ... 0
Time for construction of square roots      ...    0.000 sec
Total time needed                          ...    0.001 sec

-------------------
DFT GRID GENERATION
-------------------

General Integration Accuracy     IntAcc      ... 4.388
Radial Grid Type                 RadialGrid  ... OptM3 with GC (2021)
Angular Grid (max. ang.)         AngularGrid ... 4 (Lebedev-302)
Angular grid pruning method      GridPruning ... 4 (adaptive)
Weight generation scheme         WeightScheme... mBecke (2022)
Basis function cutoff            BFCut       ... 1.0000e-12
Integration weight cutoff        WCut        ... 1.0000e-14
Partially contracted basis set               ... off
Rotationally invariant grid construction     ... off
Angular grids for H and He will be reduced by one unit

Total number of grid points                  ...    22067
Total number of batches                      ...      346
Average number of points per batch           ...       63
Average number of grid points per atom       ...     7356

---------------------
SHARK GRID GENERATION
---------------------

General Integration Accuracy     IntAcc      ... 4.388
Radial Grid Type                 RadialGrid  ... OptM3 with GC (2021)
Angular Grid (max. ang.)         AngularGrid ... 4 (Lebedev-302)
Angular grid pruning method      GridPruning ... 4 (adaptive)
Weight generation scheme         WeightScheme... mBecke (2022)
Basis function cutoff            BFCut       ... 1.0000e-12
Integration weight cutoff        WCut        ... 1.0000e-14
Partially contracted basis set               ... off
Rotationally invariant grid construction     ... off
Angular grids for H and He will be reduced by one unit
Core-polarized basis detected: some atoms will have their core
                               angular grid increased.
Steep s-basis detected: some atoms will have their radial
                        grid points doubled.

Total number of grid points                  ...    57990
Total number of batches                      ...      908
Average number of points per batch           ...       63
Average number of grid points per atom       ...    19330
Initializing property integral containers    ... done (  0.0 sec)

SHARK setup successfully completed in   2.2 seconds

Maximum memory used throughout the entire STARTUP-calculation: 27.5 MB
-------------------------------------------------------------------------------
                                 ORCA GUESS
                   Start orbitals & Density for SCF / CASSCF
-------------------------------------------------------------------------------

------------
SCF SETTINGS
------------
Hamiltonian:
 Ab initio Hamiltonian  Method          .... Hartree-Fock(GTOs)


General Settings:
 Integral files         IntName         .... AR3LD_3.2_2.8_4.8
 Hartree-Fock type      HFTyp           .... RHF
 Total Charge           Charge          ....    0
 Multiplicity           Mult            ....    1
 Number of Electrons    NEL             ....   54
 Basis Dimension        Dim             ....   81
 Nuclear Repulsion      ENuc            ....    150.5320165753 Eh

Convergence Acceleration:
 AO-DIIS                CNVDIIS         .... on
   Start iteration      DIISMaxIt       ....    12
   Startup error        DIISStart       ....  0.200000
   # of expansion vecs  DIISMaxEq       ....     5
   Bias factor          DIISBfac        ....   1.050
   Max. coefficient     DIISMaxC        ....  10.000
 MO-DIIS                CNVKDIIS        .... off
 Trust-Rad. Augm. Hess. CNVTRAH         .... auto
   Auto Start mean grad. ratio tolernc. ....  1.125000
   Auto Start start iteration           ....    50
   Auto Start num. interpolation iter.  ....    10
   Max. Number of Micro iterations      ....    24
   Max. Number of Macro iterations      .... Maxiter - #DIIS iter
   Number of Davidson start vectors     ....     2
   Converg. threshold    (grad. norm)   ....   2.000e-06
   Grad. Scal. Fac. for Micro threshold ....   0.100
   Minimum threshold for Micro iter.    ....   1.000e-02
   NR start threshold (gradient norm)   ....   1.000e-04
   Initial trust radius                 ....   0.400
   Minimum AH scaling param. (alpha)    ....   1.000
   Maximum AH scaling param. (alpha)    .... 1000.000
   Quad. conv. algorithm                .... NR
   White noise on init. David. guess    .... on
   Maximum white noise                  ....   0.010
   Pseudo random numbers                .... off
   Inactive MOs                         .... canonical
   Orbital update algorithm             .... Taylor
   Preconditioner                       .... Diag
   Full preconditioner red. dimension   ....   250
 SOSCF                  CNVSOSCF        .... on
   Start iteration      SOSCFMaxIt      ....   150
   Startup grad/error   SOSCFStart      ....  0.003300
   Hessian update       SOSCFHessUp     .... L-BFGS
 Level Shifting         CNVShift        .... on
   Level shift para.    LevelShift      ....    0.2500
   Turn off err/grad.   ShiftErr        ....    0.0010
 Zerner damping         CNVZerner       .... off
 Static damping         CNVDamp         .... on
   Fraction old density DampFac         ....    0.7000
   Max. Damping (<1)    DampMax         ....    0.9800
   Min. Damping (>=0)   DampMin         ....    0.0000
   Turn off err/grad.   DampErr         ....    0.1000

SCF Procedure:
 Maximum # iterations   MaxIter         ....   125
 SCF integral mode      SCFMode         .... Direct
   Integral package                     .... SHARK and LIBINT hybrid scheme
 Reset frequency        DirectResetFreq ....    20
 Integral Threshold     Thresh          ....  1.000e-12 Eh
 Primitive CutOff       TCut            ....  1.000e-14 Eh

Convergence Tolerance:
 Convergence Check Mode ConvCheckMode   .... Total+1el-Energy
 Convergence forced     ConvForced      .... 1
 Energy Change          TolE            ....  1.000e-09 Eh
 1-El. energy change                    ....  1.000e-06 Eh
 Orbital Gradient       TolG            ....  2.000e-06
 Orbital Rotation angle TolX            ....  2.000e-06
 DIIS Error             TolErr          ....  1.000e-08

------------------------------
INITIAL GUESS: MODEL POTENTIAL
------------------------------
Loading Hartree-Fock densities                     ... done
Calculating cut-offs                               ... done
Initializing the effective Hamiltonian             ... done
Setting up the integral package (SHARK)            ... done
Starting the Coulomb interaction                   ... done (   0.0 sec)
Making the grid                                    ... done (   0.1 sec)
Mapping shells                                     ... done
Starting the XC term evaluation                    ... done (   0.0 sec)
Transforming the Hamiltonian                       ... done (   0.0 sec)
Diagonalizing the Hamiltonian                      ... done (   0.0 sec)
Back transforming the eigenvectors                 ... done (   0.0 sec)
Now organizing SCF variables                       ... done
                      ------------------
                      INITIAL GUESS DONE (   0.1 sec)
                      ------------------
             **** ENERGY FILE WAS UPDATED (AR3LD_3.2_2.8_4.8.en.tmp) ****
Finished Guess after   0.2 sec
Maximum memory used throughout the entire GUESS-calculation: 6.7 MB

-------------------------------------------------------------------------------------------
                                      ORCA LEAN-SCF
                              memory conserving SCF solver
-------------------------------------------------------------------------------------------

----------------------------------------D-I-I-S--------------------------------------------
Iteration    Energy (Eh)           Delta-E    RMSDP     MaxDP     DIISErr   Damp  Time(sec)
-------------------------------------------------------------------------------------------
               ***  Starting incremental Fock matrix formation  ***
    1    -1580.3676378850602759     0.00e+00  1.12e-03  1.79e-02  9.20e-02  0.700   0.8
    2    -1580.3730614840221733    -5.42e-03  8.84e-04  1.31e-02  6.59e-02  0.700   0.8
                               ***Turning on AO-DIIS***
    3    -1580.3770169137812900    -3.96e-03  7.06e-04  9.57e-03  4.69e-02  0.700   0.8
    4    -1580.3798679306300983    -2.85e-03  1.73e-03  2.25e-02  3.29e-02  0.000   0.7
                              *** Initializing SOSCF ***
---------------------------------------S-O-S-C-F--------------------------------------
Iteration    Energy (Eh)           Delta-E    RMSDP     MaxDP     MaxGrad    Time(sec)
--------------------------------------------------------------------------------------
    5    -1580.3868558490362375    -6.99e-03  8.82e-05  1.03e-03  1.17e-03     0.7
               *** Restarting incremental Fock matrix formation ***
    6    -1580.3868656284764711    -9.78e-06  4.17e-05  5.78e-04  2.24e-04     0.9
    7    -1580.3868673083054546    -1.68e-06  1.52e-05  1.90e-04  5.27e-05     0.7
    8    -1580.3868674186164753    -1.10e-07  8.77e-07  1.62e-05  8.56e-06     0.7
    9    -1580.3868674192510753    -6.35e-10  1.82e-07  3.08e-06  1.35e-06     0.6
                 **** Energy Check signals convergence ****

               *****************************************************
               *                     SUCCESS                       *
               *           SCF CONVERGED AFTER   9 CYCLES          *
               *****************************************************

             **** ENERGY FILE WAS UPDATED (AR3LD_3.2_2.8_4.8.en.tmp) ****

----------------
TOTAL SCF ENERGY
----------------

Total Energy       :      -1580.38686741925108 Eh          -43004.51297 eV

Components:
Nuclear Repulsion  :        150.53201657533933 Eh            4096.18442 eV
Electronic Energy  :      -1730.91888399459049 Eh          -47100.69739 eV
One Electron Energy:      -2485.74954669303497 Eh          -67640.68395 eV
Two Electron Energy:        754.83066269844448 Eh           20539.98656 eV

Virial components:
Potential Energy   :      -3160.94098416120369 Eh          -86013.57702 eV
Kinetic Energy     :       1580.55411674195261 Eh           43009.06406 eV
Virial Ratio       :          1.99989418310899

---------------
SCF CONVERGENCE
---------------

  Last Energy change         ...    6.3460e-10  Tolerance :   1.0000e-09
  Last MAX-Density change    ...    3.0800e-06  Tolerance :   1.0000e-08
  Last RMS-Density change    ...    1.8225e-07  Tolerance :   1.0000e-09
  Last DIIS Error            ...    1.1677e-03  Tolerance :   1.0000e-08
  Last Orbital Gradient      ...    1.3507e-06  Tolerance :   2.0000e-06
  Last Orbital Rotation      ...    1.8698e-06  Tolerance :   2.0000e-06


----------------
ORBITAL ENERGIES
----------------

  NO   OCC          E(Eh)            E(eV) 
   0   2.0000    -118.608941     -3227.5134 
   1   2.0000    -118.605703     -3227.4252 
   2   2.0000    -118.604076     -3227.3810 
   3   2.0000     -12.321335      -335.2806 
   4   2.0000     -12.318792      -335.2114 
   5   2.0000     -12.317364      -335.1725 
   6   2.0000      -9.569917      -260.4107 
   7   2.0000      -9.569907      -260.4104 
   8   2.0000      -9.569906      -260.4104 
   9   2.0000      -9.567377      -260.3416 
  10   2.0000      -9.567280      -260.3389 
  11   2.0000      -9.567278      -260.3389 
  12   2.0000      -9.565949      -260.3027 
  13   2.0000      -9.565858      -260.3002 
  14   2.0000      -9.565852      -260.3001 
  15   2.0000      -1.288259       -35.0553 
  16   2.0000      -1.278578       -34.7919 
  17   2.0000      -1.268960       -34.5302 
  18   2.0000      -0.633959       -17.2509 
  19   2.0000      -0.613068       -16.6824 
  20   2.0000      -0.600056       -16.3284 
  21   2.0000      -0.591922       -16.1070 
  22   2.0000      -0.591564       -16.0973 
  23   2.0000      -0.590972       -16.0812 
  24   2.0000      -0.581829       -15.8324 
  25   2.0000      -0.570160       -15.5149 
  26   2.0000      -0.549248       -14.9458 
  27   0.0000       0.121809         3.3146 
  28   0.0000       0.126794         3.4502 
  29   0.0000       0.135085         3.6758 
  30   0.0000       0.137067         3.7298 
  31   0.0000       0.150920         4.1067 
  32   0.0000       0.165388         4.5004 
  33   0.0000       0.168187         4.5766 
  34   0.0000       0.187751         5.1090 
  35   0.0000       0.201362         5.4793 
  36   0.0000       0.213517         5.8101 
  37   0.0000       0.285107         7.7581 
*Only the first 10 virtual orbitals were printed.

                    ********************************
                    * MULLIKEN POPULATION ANALYSIS *
                    ********************************

-------------------------
MULLIKEN FRAGMENT CHARGES
-------------------------
 Fragment   0 :  -0.001035
 Fragment   1 :  -0.000502
 Fragment   2 :   0.001537
Sum of fragment charges:   -0.0000000

---------------------------------
MULLIKEN FRAGMENT OVERLAP CHARGES
---------------------------------
                  0          1          2    
      0      18.061754   0.001680  -0.123118
      1       0.001680  18.013526  -0.027727
      2      -0.123118  -0.027727  18.073885

-----------------------
MULLIKEN ATOMIC CHARGES
-----------------------
   0 Ar:   -0.001035
   1 Ar:   -0.000502
   2 Ar:    0.001537
Sum of atomic charges:   -0.0000000

--------------------------------
MULLIKEN REDUCED ORBITAL CHARGES
--------------------------------
  0 Ars       :     5.995481  s :     5.995481
      pz      :     3.999674  p :    12.004160
      px      :     4.003020
      py      :     4.001466
      dz2     :     0.000178  d :     0.001394
      dxz     :     0.000196
      dyz     :     0.000137
      dx2y2   :     0.000350
      dxy     :     0.000533

  1 Ars       :     5.998006  s :     5.998006
      pz      :     3.999900  p :    12.002161
      px      :     4.001808
      py      :     4.000453
      dz2     :     0.000034  d :     0.000335
      dxz     :     0.000065
      dyz     :     0.000030
      dx2y2   :     0.000102
      dxy     :     0.000104

  2 Ars       :     5.992388  s :     5.992388
      pz      :     3.999578  p :    12.004396
      px      :     4.003498
      py      :     4.001320
      dz2     :     0.000170  d :     0.001679
      dxz     :     0.000254
      dyz     :     0.000167
      dx2y2   :     0.000437
      dxy     :     0.000652



                     *******************************
                     * LOEWDIN POPULATION ANALYSIS *
                     *******************************

------------------------
LOEWDIN FRAGMENT CHARGES
------------------------
 Fragment   0 :   0.001764
 Fragment   1 :   0.001954
 Fragment   2 :  -0.003718

----------------------------
LOEWDIN FRAGMENT BOND ORDERS
----------------------------
                  0          1          2    
      0      17.998236   0.003570   0.287227
      1       0.003570  17.998046   0.133375
      2       0.287227   0.133375  18.003718

----------------------
LOEWDIN ATOMIC CHARGES
----------------------
   0 Ar:    0.001764
   1 Ar:    0.001954
   2 Ar:   -0.003718

-------------------------------
LOEWDIN REDUCED ORBITAL CHARGES
-------------------------------
  0 Ars       :     5.973192  s :     5.973192
      pz      :     3.998424  p :    12.001471
      px      :     4.001570
      py      :     4.001478
      dz2     :     0.005150  d :     0.023572
      dxz     :     0.000872
      dyz     :     0.000607
      dx2y2   :     0.001923
      dxy     :     0.015020

  1 Ars       :     5.986128  s :     5.986128
      pz      :     3.999724  p :    12.006923
      px      :     4.004419
      py      :     4.002780
      dz2     :     0.001135  d :     0.004996
      dxz     :     0.000140
      dyz     :     0.000064
      dx2y2   :     0.000654
      dxy     :     0.003002

  2 Ars       :     5.963111  s :     5.963111
      pz      :     3.998494  p :    12.012249
      px      :     4.007564
      py      :     4.006192
      dz2     :     0.006245  d :     0.028358
      dxz     :     0.000994
      dyz     :     0.000680
      dx2y2   :     0.002499
      dxy     :     0.017940



                      *****************************
                      * MAYER POPULATION ANALYSIS *
                      *****************************

  NA   - Mulliken gross atomic population
  ZA   - Total nuclear charge
  QA   - Mulliken gross atomic charge
  VA   - Mayer's total valence
  BVA  - Mayer's bonded valence
  FA   - Mayer's free valence

  ATOM       NA         ZA         QA         VA         BVA        FA
  0 Ar    18.0010    18.0000    -0.0010    -0.0243    -0.0243    -0.0000
  1 Ar    18.0005    18.0000    -0.0005    -0.0024    -0.0024    -0.0000
  2 Ar    17.9985    18.0000     0.0015    -0.0299    -0.0299    -0.0000

  Mayer bond orders larger than 0.100000
  => no bond orders to print

-------
TIMINGS
-------

Total SCF time: 0 days 0 hours 0 min 6 sec 

Total time                  ....       6.786 sec
Sum of individual times     ....       6.773 sec  ( 99.8%)

SCF preparation             ....       0.058 sec  (  0.9%)
Fock matrix formation       ....       6.678 sec  ( 98.4%)
  Startup                   ....       0.001 sec  (  0.0% of F)
  Coulomb+Exchange Fock     ....       6.670 sec  ( 99.9% of F)
Diagonalization             ....       0.000 sec  (  0.0%)
Density matrix formation    ....       0.004 sec  (  0.1%)
Total Energy calculation    ....       0.001 sec  (  0.0%)
Population analysis         ....       0.005 sec  (  0.1%)
Orbital Transformation      ....       0.004 sec  (  0.1%)
Orbital Orthonormalization  ....       0.000 sec  (  0.0%)
DIIS solution               ....       0.015 sec  (  0.2%)
SOSCF solution              ....       0.006 sec  (  0.1%)
Finished LeanSCF after   6.8 sec

Maximum memory used throughout the entire LEANSCF-calculation: 8.7 MB

------------------------------------------------------------------------------
                         ORCA PROPERTY INTEGRAL CALCULATIONS
------------------------------------------------------------------------------

GBWName                                   ... AR3LD_3.2_2.8_4.8.gbw
Number of atoms                           ...      3
Number of basis functions                 ...    150
Max core memory                           ...   1024 MB

Dipole integrals                          ... YES
Quadrupole integrals                      ...  NO
Linear momentum integrals                 ... YES
Angular momentum integrals                ... YES
Higher moments length integrals           ...  NO
Higher moments velocity integrals         ...  NO
Kinetic energy integrals                  ...  NO
GIAO right hand sides                     ...  NO
GIAO dipole derivative integrals          ...  NO
SOC integrals                             ...  NO
EPR diamagnetic integrals (GIAO)          ...  NO
EPR gauge integrals                       ...  NO
Field gradient integrals                  ...  NO (   0 nuclei)
Spin-dipole/Fermi contact integrals       ...  NO (   0 nuclei)
Contact density integrals                 ...  NO (   0 nuclei)
Nucleus-orbit integrals                   ...  NO (   0 nuclei)
Geometric perturbations                   ...  NO (   3 nuclei)

Choice of electric origin   ... Center of mass
Position of electric origin ... (  4.3779,  1.1299,  0.0000) 
Choice of magnetic origin   ... GIAO
Position of magnetic origin ... (  0.0000,  0.0000,  0.0000) 

Calculating integrals                     ... Electric Dipole (Length)     done (  0.0 sec)
Calculating integrals                     ... Linear Momentum              done (  0.0 sec)
Calculating integrals                     ... Angular Momentum  (ElOri)    done (  0.0 sec)

Property integrals calculated in   0.0 sec

Maximum memory used throughout the entire PROPINT-calculation: 6.8 MB


--------------------------------------------------------------------------------
                             ORCA-MATRIX DRIVEN CI
--------------------------------------------------------------------------------


Wavefunction type
-----------------
Correlation treatment                      ...      CCSD     
Single excitations                         ... ON
Orbital optimization                       ... OFF
Calculation of Z vector                    ... OFF
Calculation of Brueckner orbitals          ... OFF
Perturbative triple excitations            ... OFF
Calculation of F12 correction              ... OFF
Frozen core treatment                      ... chemical core (30 el)
Reference Wavefunction                     ... RHF
  Internal Orbitals:    15 ...   26 ( 12 MO's/ 24 electrons)
  Virtual  Orbitals:    27 ...   80 ( 54 MO's              )
Number of AO's                             ...     81
Number of electrons                        ...     54
Number of correlated electrons             ...     24

Algorithmic settings
--------------------
Integral transformation                    ... All integrals via the RI transformation
K(C) Formation                             ... RI-DLPNO
   PNO-Integral Storage                    ... ON DISK
   PNO occupation number cut-off           ... 3.330e-07
   Singles PNO occupation number cut-off   ... 9.990e-09
   PNO Mulliken prescreening cut-off       ... 1.000e-03
   Domain cut-off (Mulliken population)    ... 1.000e-03
   PNO Normalization                       ...    1
Maximum number of iterations               ...        50
Convergence tolerance (max. residuum)      ... 1.000e-06
Level shift for amplitude update           ... 2.000e-01
Maximum number of DIIS vectors             ...         7
DIIS turned on at iteration                ...         0
Damping before turning on DIIS             ...     0.500
Damping after turning on DIIS              ...     0.000
Pair specific amplitude update             ... OFF
Natural orbital iterations                 ... OFF
Perturbative natural orbital generation    ... OFF
Printlevel                                 ... 2

Singles Fock matrix elements calculated using PNOs.

Memory handling:
----------------
Maximum memory for working arrays          ...    512 MB
Data storage in matrix containers          ... UNCOMPRESSED
Data type for integral storage             ... DOUBLE
In-Core Storage of quantities:
   Amplitudes+Sigma Vector      ... NO
   J+K operators                ... NO
   DIIS vectors                 ... NO
   3-external integrals         ... NO
   4-external integrals         ... NO

Localization treatment:
-----------------------
Localization option                        ...    2
Localization threshhold                    ... -1.0e+00
Using relative localization threshhold     ... 1.0e-08
Neglect threshold for strong pairs         ... 1.000e-05 Eh
Prescreening threshold for very weak pairs ... 1.000e-07 Eh
Using randomized seed for localization     ... on

Initializing the integral package          ... done
Localizing the valence orbitals
Localizing the valence orbitals
Localization sum:   202.819431863 
------------------------------------------------------------------------------
                           ORCA ORBITAL LOCALIZATION
------------------------------------------------------------------------------

Input orbitals are from                  ... AR3LD_3.2_2.8_4.8.proc0.gbw
Output orbitals are to                   ... AR3LD_3.2_2.8_4.8.proc0.loc
Max. number of iterations                ... 128
Localizations seeded randomly            ... on
Convergence tolerance                    ... 2.000e-07
Using relative localization threshhold   ... 1.000e-08
Threshold for strong local MOs           ... 9.500e-01
Threshold for bond MOs                   ... 8.500e-01
Operator                                 ... 0
Orbital range for localization           ... 15 to 26
Localization criterion                   ... FOSTER-BOYS
Doing the dipole integrals     ... o.k.
Entering Jacobi type localization:
Using Cholesky decomposition as initial guess.
Initial value of the localization sum :   195.875956
ITERATION   0 : L=  202.7820992245 DL=  6.91e+00 (MAX-T)=  45.000 
ITERATION   1 : L=  202.7854916590 DL=  3.39e-03 (MAX-T)=   1.013 
ITERATION   2 : L=  202.7871025229 DL=  1.61e-03 (MAX-T)=   0.880 
ITERATION   3 : L=  202.7884190283 DL=  1.32e-03 (MAX-T)=   0.785 
ITERATION   4 : L=  202.7893564462 DL=  9.37e-04 (MAX-T)=   0.693 
ITERATION   5 : L=  202.7902634189 DL=  9.07e-04 (MAX-T)=   0.668 
ITERATION   6 : L=  202.7908796498 DL=  6.16e-04 (MAX-T)=   0.537 
ITERATION   7 : L=  202.7913507248 DL=  4.71e-04 (MAX-T)=   0.516 
ITERATION   8 : L=  202.7917009739 DL=  3.50e-04 (MAX-T)=   0.407 
ITERATION   9 : L=  202.7920115014 DL=  3.11e-04 (MAX-T)=   0.377 
ITERATION  10 : L=  202.7922130494 DL=  2.02e-04 (MAX-T)=   0.317 
ITERATION  11 : L=  202.7923722360 DL=  1.59e-04 (MAX-T)=   0.256 
ITERATION  12 : L=  202.7924979612 DL=  1.26e-04 (MAX-T)=   0.180 
ITERATION  13 : L=  202.7925888914 DL=  9.09e-05 (MAX-T)=   0.202 
ITERATION  14 : L=  202.7926600962 DL=  7.12e-05 (MAX-T)=   0.162 
ITERATION  15 : L=  202.7927248779 DL=  6.48e-05 (MAX-T)=   0.152 
ITERATION  16 : L=  202.7927791973 DL=  5.43e-05 (MAX-T)=   0.135 
ITERATION  17 : L=  202.7928304143 DL=  5.12e-05 (MAX-T)=   0.122 
ITERATION  18 : L=  202.7928759112 DL=  4.55e-05 (MAX-T)=   0.105 
ITERATION  19 : L=  202.7929200635 DL=  4.42e-05 (MAX-T)=   0.124 
ITERATION  20 : L=  202.7929646015 DL=  4.45e-05 (MAX-T)=   0.127 
ITERATION  21 : L=  202.7930073329 DL=  4.27e-05 (MAX-T)=   0.154 
ITERATION  22 : L=  202.7930595653 DL=  5.22e-05 (MAX-T)=   0.131 
ITERATION  23 : L=  202.7931112591 DL=  5.17e-05 (MAX-T)=   0.162 
ITERATION  24 : L=  202.7931640988 DL=  5.28e-05 (MAX-T)=   0.227 
ITERATION  25 : L=  202.7932374789 DL=  7.34e-05 (MAX-T)=   0.187 
ITERATION  26 : L=  202.7933231170 DL=  8.56e-05 (MAX-T)=   0.276 
ITERATION  27 : L=  202.7934300793 DL=  1.07e-04 (MAX-T)=   0.279 
ITERATION  28 : L=  202.7935499622 DL=  1.20e-04 (MAX-T)=   0.275 
ITERATION  29 : L=  202.7937437340 DL=  1.94e-04 (MAX-T)=   0.324 
ITERATION  30 : L=  202.7938719421 DL=  1.28e-04 (MAX-T)=   0.268 
ITERATION  31 : L=  202.7939962601 DL=  1.24e-04 (MAX-T)=   0.412 
ITERATION  32 : L=  202.7941965084 DL=  2.00e-04 (MAX-T)=   0.388 
ITERATION  33 : L=  202.7945008279 DL=  3.04e-04 (MAX-T)=   0.521 
ITERATION  34 : L=  202.7948781060 DL=  3.77e-04 (MAX-T)=   0.555 
ITERATION  35 : L=  202.7952424195 DL=  3.64e-04 (MAX-T)=   0.628 
ITERATION  36 : L=  202.7959883525 DL=  7.46e-04 (MAX-T)=   0.620 
ITERATION  37 : L=  202.7963690984 DL=  3.81e-04 (MAX-T)=   0.556 
ITERATION  38 : L=  202.7971105827 DL=  7.41e-04 (MAX-T)=   0.798 
ITERATION  39 : L=  202.7979429606 DL=  8.32e-04 (MAX-T)=   0.819 
ITERATION  40 : L=  202.7988583688 DL=  9.15e-04 (MAX-T)=   0.829 
ITERATION  41 : L=  202.7999741302 DL=  1.12e-03 (MAX-T)=   0.709 
ITERATION  42 : L=  202.8013533809 DL=  1.38e-03 (MAX-T)=   0.952 
ITERATION  43 : L=  202.8026512512 DL=  1.30e-03 (MAX-T)=   0.974 
ITERATION  44 : L=  202.8034835145 DL=  8.32e-04 (MAX-T)=   0.975 
ITERATION  45 : L=  202.8049915671 DL=  1.51e-03 (MAX-T)=   0.891 
ITERATION  46 : L=  202.8063352339 DL=  1.34e-03 (MAX-T)=   0.932 
ITERATION  47 : L=  202.8072478822 DL=  9.13e-04 (MAX-T)=   1.100 
ITERATION  48 : L=  202.8081411149 DL=  8.93e-04 (MAX-T)=   1.134 
ITERATION  49 : L=  202.8093649899 DL=  1.22e-03 (MAX-T)=   1.086 
ITERATION  50 : L=  202.8104619412 DL=  1.10e-03 (MAX-T)=   0.910 
ITERATION  51 : L=  202.8112781798 DL=  8.16e-04 (MAX-T)=   1.008 
ITERATION  52 : L=  202.8123660197 DL=  1.09e-03 (MAX-T)=   0.741 
ITERATION  53 : L=  202.8132564007 DL=  8.90e-04 (MAX-T)=   0.782 
ITERATION  54 : L=  202.8139889514 DL=  7.33e-04 (MAX-T)=   0.678 
ITERATION  55 : L=  202.8143879566 DL=  3.99e-04 (MAX-T)=   0.605 
ITERATION  56 : L=  202.8148944546 DL=  5.06e-04 (MAX-T)=   0.732 
ITERATION  57 : L=  202.8154559285 DL=  5.61e-04 (MAX-T)=   0.538 
ITERATION  58 : L=  202.8159971651 DL=  5.41e-04 (MAX-T)=   0.508 
ITERATION  59 : L=  202.8164440062 DL=  4.47e-04 (MAX-T)=   0.535 
ITERATION  60 : L=  202.8167590738 DL=  3.15e-04 (MAX-T)=   0.507 
ITERATION  61 : L=  202.8170996974 DL=  3.41e-04 (MAX-T)=   0.438 
ITERATION  62 : L=  202.8173673192 DL=  2.68e-04 (MAX-T)=   0.442 
ITERATION  63 : L=  202.8175506743 DL=  1.83e-04 (MAX-T)=   0.377 
ITERATION  64 : L=  202.8177705442 DL=  2.20e-04 (MAX-T)=   0.368 
ITERATION  65 : L=  202.8179047508 DL=  1.34e-04 (MAX-T)=   0.272 
ITERATION  66 : L=  202.8179845511 DL=  7.98e-05 (MAX-T)=   0.339 
ITERATION  67 : L=  202.8181223517 DL=  1.38e-04 (MAX-T)=   0.317 
ITERATION  68 : L=  202.8182584749 DL=  1.36e-04 (MAX-T)=   0.290 
ITERATION  69 : L=  202.8183604784 DL=  1.02e-04 (MAX-T)=   0.229 
ITERATION  70 : L=  202.8184319068 DL=  7.14e-05 (MAX-T)=   0.208 
ITERATION  71 : L=  202.8184764127 DL=  4.45e-05 (MAX-T)=   0.251 
ITERATION  72 : L=  202.8185477439 DL=  7.13e-05 (MAX-T)=   0.232 
ITERATION  73 : L=  202.8186121135 DL=  6.44e-05 (MAX-T)=   0.206 
ITERATION  74 : L=  202.8186805996 DL=  6.85e-05 (MAX-T)=   0.174 
ITERATION  75 : L=  202.8187536940 DL=  7.31e-05 (MAX-T)=   0.205 
ITERATION  76 : L=  202.8187970535 DL=  4.34e-05 (MAX-T)=   0.172 
ITERATION  77 : L=  202.8188549603 DL=  5.79e-05 (MAX-T)=   0.219 
ITERATION  78 : L=  202.8189067174 DL=  5.18e-05 (MAX-T)=   0.190 
ITERATION  79 : L=  202.8189571938 DL=  5.05e-05 (MAX-T)=   0.177 
ITERATION  80 : L=  202.8190025994 DL=  4.54e-05 (MAX-T)=   0.190 
ITERATION  81 : L=  202.8190412014 DL=  3.86e-05 (MAX-T)=   0.146 
ITERATION  82 : L=  202.8190625260 DL=  2.13e-05 (MAX-T)=   0.172 
ITERATION  83 : L=  202.8190915708 DL=  2.90e-05 (MAX-T)=   0.151 
ITERATION  84 : L=  202.8191213473 DL=  2.98e-05 (MAX-T)=   0.126 
ITERATION  85 : L=  202.8191469675 DL=  2.56e-05 (MAX-T)=   0.164 
ITERATION  86 : L=  202.8191638966 DL=  1.69e-05 (MAX-T)=   0.146 
ITERATION  87 : L=  202.8191857670 DL=  2.19e-05 (MAX-T)=   0.121 
ITERATION  88 : L=  202.8192082509 DL=  2.25e-05 (MAX-T)=   0.133 
ITERATION  89 : L=  202.8192295476 DL=  2.13e-05 (MAX-T)=   0.110 
ITERATION  90 : L=  202.8192464687 DL=  1.69e-05 (MAX-T)=   0.104 
ITERATION  91 : L=  202.8192630820 DL=  1.66e-05 (MAX-T)=   0.101 
ITERATION  92 : L=  202.8192802666 DL=  1.72e-05 (MAX-T)=   0.110 
ITERATION  93 : L=  202.8192933527 DL=  1.31e-05 (MAX-T)=   0.081 
ITERATION  94 : L=  202.8193070270 DL=  1.37e-05 (MAX-T)=   0.106 
ITERATION  95 : L=  202.8193190533 DL=  1.20e-05 (MAX-T)=   0.085 
ITERATION  96 : L=  202.8193302842 DL=  1.12e-05 (MAX-T)=   0.074 
ITERATION  97 : L=  202.8193418998 DL=  1.16e-05 (MAX-T)=   0.082 
ITERATION  98 : L=  202.8193515781 DL=  9.68e-06 (MAX-T)=   0.079 
ITERATION  99 : L=  202.8193572679 DL=  5.69e-06 (MAX-T)=   0.070 
ITERATION 100 : L=  202.8193672550 DL=  9.99e-06 (MAX-T)=   0.075 
ITERATION 101 : L=  202.8193752397 DL=  7.98e-06 (MAX-T)=   0.077 
ITERATION 102 : L=  202.8193817908 DL=  6.55e-06 (MAX-T)=   0.067 
ITERATION 103 : L=  202.8193876354 DL=  5.84e-06 (MAX-T)=   0.059 
ITERATION 104 : L=  202.8193942253 DL=  6.59e-06 (MAX-T)=   0.060 
ITERATION 105 : L=  202.8193992949 DL=  5.07e-06 (MAX-T)=   0.047 
ITERATION 106 : L=  202.8194026046 DL=  3.31e-06 (MAX-T)=   0.058 
ITERATION 107 : L=  202.8194059453 DL=  3.34e-06 (MAX-T)=   0.053 
ITERATION 108 : L=  202.8194104390 DL=  4.49e-06 (MAX-T)=   0.049 
ITERATION 109 : L=  202.8194140513 DL=  3.61e-06 (MAX-T)=   0.049 
ITERATION 110 : L=  202.8194176117 DL=  3.56e-06 (MAX-T)=   0.048 
ITERATION 111 : L=  202.8194199464 DL=  2.33e-06 (MAX-T)=   0.050 
ITERATION 112 : L=  202.8194226221 DL=  2.68e-06 (MAX-T)=   0.044 
ITERATION 113 : L=  202.8194253979 DL=  2.78e-06 (MAX-T)=   0.042 
ITERATION 114 : L=  202.8194281437 DL=  2.75e-06 (MAX-T)=   0.043 
ITERATION 115 : L=  202.8194302562 DL=  2.11e-06 (MAX-T)=   0.036 
ITERATION 116 : L=  202.8194318628 DL=  1.61e-06 (MAX-T)=   0.032 
LOCALIZATION SUM CONVERGED


--------------------------------------------------------------------------------
                    LOCALIZED MOLECULAR ORBITAL COMPOSITIONS
--------------------------------------------------------------------------------

The Mulliken populations for each LMO on each atom are computed
The LMO`s will be ordered according to atom index and type
  (A) Strongly localized MO`s have populations of >=0.950 on one atom
  (B) Two center bond orbitals have populations of >=0.850 on two atoms
  (C) Other MO`s are considered to be `delocalized`

FOUND  -  12 strongly local MO`s
       -   0 two center bond MO`s
       -   0 significantly delocalized MO`s

Rather strongly localized orbitals:
MO  26:   2Ar -   1.002365
MO  25:   2Ar -   1.002207
MO  24:   2Ar -   1.002143
MO  23:   2Ar -   1.002611
MO  22:   1Ar -   1.000189
MO  21:   1Ar -   1.000157
MO  20:   1Ar -   1.000306
MO  19:   1Ar -   1.000931
MO  18:   0Ar -   1.001978
MO  17:   0Ar -   1.001933
MO  16:   0Ar -   1.002153
MO  15:   0Ar -   1.002032
Localized MO's were stored in: AR3LD_3.2_2.8_4.8.proc0.loc

Localizing the core orbitals
Localization sum:   245.193469647 
------------------------------------------------------------------------------
                           ORCA ORBITAL LOCALIZATION
------------------------------------------------------------------------------

Input orbitals are from                  ... AR3LD_3.2_2.8_4.8.proc0.loc
Output orbitals are to                   ... AR3LD_3.2_2.8_4.8.proc0.loc
Max. number of iterations                ... 128
Localizations seeded randomly            ... on
Convergence tolerance                    ... 2.000e-07
Using relative localization threshhold   ... 1.000e-08
Threshold for strong local MOs           ... 9.500e-01
Threshold for bond MOs                   ... 8.500e-01
Operator                                 ... 0
Orbital range for localization           ... 0 to 14
Localization criterion                   ... FOSTER-BOYS
Doing the dipole integrals     ... o.k.
Entering Jacobi type localization:
Using Cholesky decomposition as initial guess.
Initial value of the localization sum :   244.736983
ITERATION   0 : L=  245.1925525104 DL=  4.56e-01 (MAX-T)=  45.000 
ITERATION   1 : L=  245.1934637367 DL=  9.11e-04 (MAX-T)=   3.486 
ITERATION   2 : L=  245.1934695740 DL=  5.84e-06 (MAX-T)=   0.345 
ITERATION   3 : L=  245.1934696473 DL=  7.34e-08 (MAX-T)=   0.038 
LOCALIZATION SUM CONVERGED


--------------------------------------------------------------------------------
                    LOCALIZED MOLECULAR ORBITAL COMPOSITIONS
--------------------------------------------------------------------------------

The Mulliken populations for each LMO on each atom are computed
The LMO`s will be ordered according to atom index and type
  (A) Strongly localized MO`s have populations of >=0.950 on one atom
  (B) Two center bond orbitals have populations of >=0.850 on two atoms
  (C) Other MO`s are considered to be `delocalized`

FOUND  -  15 strongly local MO`s
       -   0 two center bond MO`s
       -   0 significantly delocalized MO`s

Rather strongly localized orbitals:
MO  14:   2Ar -   1.000043
MO  13:   2Ar -   1.000075
MO  12:   2Ar -   1.000047
MO  11:   2Ar -   1.000001
MO  10:   2Ar -   1.000035
MO   9:   1Ar -   1.000011
MO   8:   1Ar -   1.000027
MO   7:   1Ar -   1.000021
MO   6:   1Ar -   1.000000
MO   5:   1Ar -   1.000023
MO   4:   0Ar -   1.000043
MO   3:   0Ar -   1.000049
MO   2:   0Ar -   1.000017
MO   1:   0Ar -   1.000000
MO   0:   0Ar -   1.000030
Localized MO's were stored in: AR3LD_3.2_2.8_4.8.proc0.loc

Warning: reference  - re-canonicalizations have been set to INT 1 VIRT 1
Warning: internal orbitals are localized - no re-canonicalization of internal orbitals
Warning: UsePNO is turned on - no re-canonicalization of internal and virtual orbitals
Fock densities were made 
Making Fock matrix and reference energy:

--------------------------
CLOSED-SHELL FOCK OPERATOR
--------------------------

Time needed for Fock operator              ...            1.434 sec
Reference energy                           ...  -1580.386867419

--------------
DLPNO SETTINGS (2015 fully linear scaling implementation)
--------------

TCutMKN:           1.000e-03
TCutPAO:           1.000e-03
TCutPNO:           3.330e-07
TCutPNOSingles:    9.990e-09
TCutEN:            9.700e-01
TCutPAOExt:        1.000e-01
TCutPairs:         1.000e-05
TCutPre:           1.000e-07
TCutOSV:           1.000e-06
TCutDOij:          1.000e-05
TCutDO:            1.000e-02
TCutC:             1.000e-04
TCutCPAO:          1.000e-03
TCutCMO:           1.000e-03
TScaleDOMP2PreScr: 2.000e+00
TScaleMKNMP2PreScr:1.000e+01
TScalePNOMP2PreScr:1.000e+00
PAO overlap thresh 1.000e-08
Using PNOs for Singles Fock computation
Use new domains
Use fully linear algorithm

--------------------------
Mulliken population of the LMOs            ... ok
Performing proximity check                 ... No problems found
Calculating differential overlap integrals ... ok

------------------------
PRESCREENING OF HF PAIRS
------------------------

   .... Finished loop over pairs

                  ============================================
                    30 of   78 PAIRS WERE SKIPPED as HF PAIRS
                  ============================================

Total time spent in skipping HF pairs                 ...     0.000 sec
--------------------------
ELECTRON PAIR PRESCREENING
--------------------------

Dipole-based pair screening          .... used

   TCutDOij = 1.000000e-05
   TCutPre  = 1.000000e-07
   .... Finished loop over pairs
Total time spent in the prescreening                  ...     0.000 sec
sum of pair energies estimated for screened out pairs ...       0.000000000000 Eh
Thresholds for map construction and integral transformation for crude MP2:
   TCutMKN                    ...     1.0e-02
   TCutDO                     ...     2.0e-02
   TCutPairs                  ...     1.0e-05
   TCutPNO_CrudeMP2           ...     3.3e-07
   TCutPNOSingles_CrudeMP2    ...     1.0e-08
--------------------------------
LOCAL RI TRANSFORMATION (IAVPAO)
--------------------------------

Orbital window:      15 to 26
Number of PAOs:      81
Basis functions:     81 (33 shells)
Aux. functions:     276 (84 shells)
Use SHARK:           on
Have SHARK:         yes

Processing maps (0.0 sec)
Average map sizes:
   Aux shells -> MOs              12.0
   Aux shells -> PAOs             81.0
   MOs        -> AO shells        28.4
   PAOs       -> AO shells        33.0

Calculating integrals (0.1 sec, 2.050 MB)
Sorting integrals (0.0 sec, 2.047 MB)
Total time for the integral transformation: 0.1 sec
--------------------------------
INITIAL GUESS AND PNO GENERATION
--------------------------------

Populations of internal orbitals onto Fragments:
  15:      1.002    0.000    0.002  assigned to fragment   1
  16:      1.002    0.000    0.002  assigned to fragment   1
  17:      1.002    0.000    0.002  assigned to fragment   1
  18:      1.002    0.000    0.002  assigned to fragment   1
  19:      0.000    1.001    0.001  assigned to fragment   2
  20:      0.000    1.000    0.000  assigned to fragment   2
  21:      0.000    1.000    0.000  assigned to fragment   2
  22:      0.000    1.000    0.000  assigned to fragment   2
  23:      0.002    0.001    1.003  assigned to fragment   3
  24:      0.002    0.000    1.002  assigned to fragment   3
  25:      0.002    0.000    1.002  assigned to fragment   3
  26:      0.002    0.000    1.002  assigned to fragment   3

Summary assignment:
   4 orbitals assigned to fragment   1
   4 orbitals assigned to fragment   2
   4 orbitals assigned to fragment   3

PNO truncation parameters                   .... 
    PAOOverlapThresh   =        1.000e-08

Pair selection                          .... 
  modified with fragment specific keywords
  Pairs will be selected according to these
  intra(inter)fragment cutoffs
  1 <-> 1
    Intrafragment pairs 1 <-> 1 neglected for CCSD
  1 <-> 2
    TCutPairs          =        1.000e-05
    TCutPNO            =        3.330e-07
    TCutMKN            =        1.000e-02
    TCutDO             =        2.000e-02
    TCutPNOSingles     =        9.990e-09
    TCutMP2Pairs       =        1.000e-06
  1 <-> 3
    TCutPairs          =        1.000e-05
    TCutPNO            =        3.330e-07
    TCutMKN            =        1.000e-02
    TCutDO             =        2.000e-02
    TCutPNOSingles     =        9.990e-09
    TCutMP2Pairs       =        1.000e-06
  2 <-> 2
    Intrafragment pairs 2 <-> 2 neglected for CCSD
  2 <-> 3
    TCutPairs          =        1.000e-05
    TCutPNO            =        3.330e-07
    TCutMKN            =        1.000e-02
    TCutDO             =        2.000e-02
    TCutPNOSingles     =        9.990e-09
    TCutMP2Pairs       =        1.000e-06
  3 <-> 3
    Intrafragment pairs 3 <-> 3 neglected for CCSD

Type of local MP2 treatment                 .... semi-local MP2
Strategy for PNO selection                  .... occupation number selection
Pair density normalization                  .... MP2 norm
Spin component scaling                      .... not used

   .... Finished loop over pairs
Making pair pair interaction lists          ... done

                       ===========================
                         34 OF   60 PAIRS ARE KEPT CCSD PAIRS
                         14 OF   60 PAIRS ARE KEPT MP2 PAIRS
                         12 OF   60 PAIRS ARE SKIPPED
                       ===========================

Total time spent in the initial guess                 ...     0.186 sec
SL-MP2 correlation energy (all non-screened pairs)    ...      -0.005207083168 Eh

Initial PNO correlation energy                        ...      -0.004998859891 Eh
sum of pair energies prescreened and skipped MP2 pairs...       0.000000000000 Eh
sum of pair energies of crude MP2 skipped pairs only  ...       0.000000000000 Eh
sum of MP2 pair energies for pairs that were not kept ...      -0.000095953573 Eh
sum of PNO error estimates for the kept pairs         ...      -0.000112269704 Eh
                                                          --------------------
sum of all corrections                                         -0.000208223277
Initial total correlation energy                               -0.005207083168
Thresholds for map construction and integral transformation for fine MP2 and CCSD(T) calculation:
   TCutMKN   ...     1.0e-03
   TCutDO    ...     1.0e-02
   TCutPairs ...     1.0e-05
   TCutCMO   ...     1.0e-03
   TCutCPAO  ...     1.0e-03

--------------------------------
LOCAL RI TRANSFORMATION (IAVPAO)
--------------------------------

Orbital window:      15 to 26
Number of PAOs:      81
Basis functions:     81 (33 shells)
Aux. functions:     276 (84 shells)
Use SHARK:           on
Have SHARK:         yes

Processing maps (0.0 sec)
Average map sizes:
   Aux shells -> MOs              12.0
   Aux shells -> PAOs             81.0
   MOs        -> AO shells        28.4
   PAOs       -> AO shells        33.0

Calculating integrals (0.1 sec, 2.050 MB)
Sorting integrals (0.0 sec, 2.047 MB)
Total time for the integral transformation: 0.1 sec
--------------------------------
INITIAL GUESS AND PNO GENERATION
--------------------------------

Populations of internal orbitals onto Fragments:
  15:      1.002    0.000    0.002  assigned to fragment   1
  16:      1.002    0.000    0.002  assigned to fragment   1
  17:      1.002    0.000    0.002  assigned to fragment   1
  18:      1.002    0.000    0.002  assigned to fragment   1
  19:      0.000    1.001    0.001  assigned to fragment   2
  20:      0.000    1.000    0.000  assigned to fragment   2
  21:      0.000    1.000    0.000  assigned to fragment   2
  22:      0.000    1.000    0.000  assigned to fragment   2
  23:      0.002    0.001    1.003  assigned to fragment   3
  24:      0.002    0.000    1.002  assigned to fragment   3
  25:      0.002    0.000    1.002  assigned to fragment   3
  26:      0.002    0.000    1.002  assigned to fragment   3

Summary assignment:
   4 orbitals assigned to fragment   1
   4 orbitals assigned to fragment   2
   4 orbitals assigned to fragment   3

PNO truncation parameters                   .... 
    PAOOverlapThresh   =        1.000e-08

Pair selection                          .... 
  modified with fragment specific keywords
  Pairs will be selected according to these
  intra(inter)fragment cutoffs
  1 <-> 1
    Intrafragment pairs 1 <-> 1 neglected for CCSD
  1 <-> 2
    TCutPairs          =        1.000e-05
    TCutPNO            =        3.330e-07
    TCutMKN            =        1.000e-03
    TCutDO             =        1.000e-02
    TCutPNOSingles     =        9.990e-09
    TCutMP2Pairs       =        1.000e-06
  1 <-> 3
    TCutPairs          =        1.000e-05
    TCutPNO            =        3.330e-07
    TCutMKN            =        1.000e-03
    TCutDO             =        1.000e-02
    TCutPNOSingles     =        9.990e-09
    TCutMP2Pairs       =        1.000e-06
  2 <-> 2
    Intrafragment pairs 2 <-> 2 neglected for CCSD
  2 <-> 3
    TCutPairs          =        1.000e-05
    TCutPNO            =        3.330e-07
    TCutMKN            =        1.000e-03
    TCutDO             =        1.000e-02
    TCutPNOSingles     =        9.990e-09
    TCutMP2Pairs       =        1.000e-06
  3 <-> 3
    Intrafragment pairs 3 <-> 3 neglected for CCSD

Type of local MP2 treatment                 .... semi-local MP2
Strategy for PNO selection                  .... occupation number selection
Pair density normalization                  .... MP2 norm
Spin component scaling                      .... not used

   .... Finished loop over pairs

 PNO Occupation Number Statistics: 
  | Av. % of trace(Dij) retained        ...  98.752685451232
  | sigma^2 in % of trace(Dij) retained ...   1.77e-01
  | Av. % of trace(Di) retained         ...  99.999862480192
  | sigma^2 in % of trace(Di) retained  ...   3.41e-09
 Distributions of % trace(Dij) recovered:
  |   [90.0, 99.0) ...    22 ( 64.7 % of all pairs)
  |   [99.0, 99.9) ...    12 ( 35.3 % of all pairs)
 Distributions of % trace(Di) recovered :
  |       >= 99.9  ...    12 (100.0 % of all I-pairs )

Making pair pair interaction lists          ... done

                       ===========================
                         34 OF   60 PAIRS ARE KEPT
                       ===========================

Total time spent in the initial guess                 ...     0.265 sec
SL-MP2 correlation energy (all non-screened pairs)    ...      -0.005207104597 Eh

Initial PNO correlation energy                        ...      -0.004998724370 Eh
sum of pair energies estimated for screened out pairs ...       0.000000000000 Eh
sum of MP2 pair energies for pairs that were not kept ...      -0.000096141983 Eh
sum of PNO error estimates for the kept pairs         ...      -0.000112238243 Eh
                                                          --------------------
sum of all corrections                                         -0.000208380227
Initial total correlation energy                               -0.005207104597
Thresholds for map construction and integral transformation for fine MP2 and CCSD(T) calculation:
   TCutMKN   ...     1.0e-03
   TCutDO    ...     1.0e-02
   TCutPairs ...     1.0e-05
   TCutCMO   ...     1.0e-03
   TCutCPAO  ...     1.0e-03

Time for aux screen maps:            0.000
Time for maps after fine MP2:            0.001
-----------------------------
LOCAL RI TRANSFORMATION (IJV)
-----------------------------

Orbital window:      15 to 26
Basis functions:     81 (33 shells)
Aux. functions:     276 (84 shells)
Use SHARK:           on

Processing maps (0.0 sec)
Average map sizes:
   Aux shells -> MOs(i)           11.0
   Aux shells -> MOs(j)           12.0
   MOs        -> AO shells        28.4

Calculating integrals NOTE: Switching SHARK to General Contraction for MDCI
      If that is not desired please turn off the PGCFlag in the input (%shark PGCFlag 0 end)
(0.8 sec, 0.281 MB)
Sorting integrals (0.0 sec, 0.278 MB)
Total time for the integral transformation: 0.8 sec
--------------------------------
LOCAL RI TRANSFORMATION (VABPAO)
--------------------------------

Number of PAOs:      81
Basis functions:     81 (33 shells)
Aux. functions:     276 (84 shells)
Use SHARK:           on

Processing maps (0.0 sec)
Average map sizes:
   Aux shells -> PAOs             81.0
   PAOs       -> AO shells        33.0

Calculating integrals NOTE: Switching SHARK to General Contraction for MDCI
      If that is not desired please turn off the PGCFlag in the input (%shark PGCFlag 0 end)
(0.8 sec, 13.819 MB)
Finished


-------------------------------------
Pair Pair Term precalculation with     
RI-(ij|mn) and (im|jn) transformation  
ON THE FLY                             
-------------------------------------

   IBatch   1 (of   1)              ... done (    0.167 sec)
Total EXT                           ...           0.167 sec

IAVPA Available = YES
VABPAO Available= YES
IJV Available   = YES
IJK Available   = NO
PNO3i Available = YES
PNO3j Available = YES
PNO4 Available  = YES
---------------------
RI-PNO TRANSFORMATION
---------------------

Total Number of PNOs                   ...   333
Average number of PNOs per pair        ...     9
Maximal number of PNOs per pair        ...    13
   #pairs with  1 -  5 PNOs   :    0
   #pairs with  6 - 10 PNOs   :   21
   #pairs with 11 - 15 PNOs   :   13
   #pairs with 16 - 20 PNOs   :    0
   #pairs with 21 - 25 PNOs   :    0
   #pairs with 26 - 30 PNOs   :    0
   #pairs with 31 - 35 PNOs   :    0
   #pairs with 36 - 40 PNOs   :    0
   #pairs with 41 - 45 PNOs   :    0
   #pairs with 46 - 50 PNOs   :    0

Generation of (ij|ab)[P] integrals            ... on
Generation of (ia|bc)[P],(ja|bc)[P] integrals ... on
Storage of 3 and 4 external integrals         ... on
Generation of ALL (ka|bc)[P] integrals        ... on
Keep RI integrals in memory                   ... off

Ibatch:  1 (of  1)
Starting 2-4 index PNO integral generation ... done

Timings:
Total PNO integral transformation time     ...          0.239 sec
Size of the 3-external file                ...         0 MB
Size of the 4-external file                ...         0 MB
Size of the IKJL file                      ...         0 MB
Size of the all 3-external file            ...         1 MB
Size of the 1-external file                ...         0 MB

Making pair/pair overlap matrices          ... done (    0.056 sec)
Size of the pair overlap file              ... 1 MB
Redoing the guess amplitudes               ... done (    0.000 sec)

-------------------------
FINAL STARTUP INFORMATION
-------------------------

E(0)                                       ...  -1580.386867419
E(SL-MP2)                                  ...     -0.005207105
E(SL-MP2) including corrections            ...     -0.005207105
Initial E(tot)                             ...  -1580.392074524
<T|T>                                      ...      0.001834563
Number of pairs included                   ... 34
Total number of pairs                      ... 78

------------------------------------------------
                  RHF COUPLED CLUSTER ITERATIONS
------------------------------------------------

Number of PNO amplitudes to be optimized   ...         3385
Number of non-PNO amplitudes               ...        99144
Untruncated number of regular amplitudes   ...       227448

Iter       E(tot)           E(Corr)          Delta-E          Residual     Time
  0  -1580.392074163     -0.004998363      0.000208741      0.000793985    0.06
                           *** Turning on DIIS ***
  1  -1580.392005671     -0.004929871      0.000068492      0.000186563    0.07
  2  -1580.392043134     -0.004967335     -0.000037464      0.000052691    0.06
  3  -1580.392047584     -0.004971784     -0.000004450      0.000010820    0.06
  4  -1580.392048116     -0.004972317     -0.000000532      0.000002061    0.06
  5  -1580.392048096     -0.004972297      0.000000020      0.000000445    0.06
               --- The Coupled-Cluster iterations have converged ---

----------------------
COUPLED CLUSTER ENERGY
----------------------

E(0)                                       ...  -1580.386867419
E(CORR)(strong-pairs)                      ...     -0.004972297
E(CORR)(weak-pairs)                        ...     -0.000208380
E(CORR)(corrected)                         ...     -0.005180677
E(TOT)                                     ...  -1580.392048096
Singles Norm <S|S>**1/2                    ...      0.002040350  
T1 diagnostic                              ...      0.000416485  

------------------
LARGEST AMPLITUDES
------------------
  24-> 27  15-> 27       0.001945
  23-> 27  19-> 27       0.001830
  23-> 28  17-> 28       0.001763
  26-> 28  18-> 28       0.001698
  24-> 30  15-> 27       0.001658
  23-> 32  17-> 28       0.001601
  24-> 27  15-> 30       0.001587
  24-> 31  18-> 27       0.001559
  24-> 31  17-> 27       0.001558
  25-> 28  16-> 28       0.001490
  23-> 28  18-> 28       0.001484
  26-> 27  15-> 31       0.001476
  24-> 31  16-> 27       0.001470
  25-> 27  15-> 31       0.001463
  23-> 27  15-> 31       0.001455
  25-> 28  17-> 28       0.001433


 ===========================================================
         LOCAL ENERGY DECOMPOSITION FOR DLPNO-CC METHODS
 ===========================================================

Maximum Iterations for the Localization .. 600
Tolerance for the Localization          ..  1.00e-06
Number of fragments = 3
Fragment  1:  0
Fragment  2:  1
Fragment  3:  2

Populations of internal orbitals onto Fragments:
   0:      1.000    0.000    0.000  assigned to fragment   1
   1:      1.000    0.000    0.000  assigned to fragment   1
   2:      1.000    0.000    0.000  assigned to fragment   1
   3:      1.000    0.000    0.000  assigned to fragment   1
   4:      1.000    0.000    0.000  assigned to fragment   1
   5:      0.000    1.000    0.000  assigned to fragment   2
   6:      0.000    1.000    0.000  assigned to fragment   2
   7:      0.000    1.000    0.000  assigned to fragment   2
   8:      0.000    1.000    0.000  assigned to fragment   2
   9:      0.000    1.000    0.000  assigned to fragment   2
  10:      0.000    0.000    1.000  assigned to fragment   3
  11:      0.000    0.000    1.000  assigned to fragment   3
  12:      0.000    0.000    1.000  assigned to fragment   3
  13:      0.000    0.000    1.000  assigned to fragment   3
  14:      0.000    0.000    1.000  assigned to fragment   3
  15:      1.002    0.000    0.002  assigned to fragment   1
  16:      1.002    0.000    0.002  assigned to fragment   1
  17:      1.002    0.000    0.002  assigned to fragment   1
  18:      1.002    0.000    0.002  assigned to fragment   1
  19:      0.000    1.001    0.001  assigned to fragment   2
  20:      0.000    1.000    0.000  assigned to fragment   2
  21:      0.000    1.000    0.000  assigned to fragment   2
  22:      0.000    1.000    0.000  assigned to fragment   2
  23:      0.002    0.001    1.003  assigned to fragment   3
  24:      0.002    0.000    1.002  assigned to fragment   3
  25:      0.002    0.000    1.002  assigned to fragment   3
  26:      0.002    0.000    1.002  assigned to fragment   3

Summary assignment:
   9 orbitals assigned to fragment   1
   9 orbitals assigned to fragment   2
   9 orbitals assigned to fragment   3


--------------------------------
CORRELATION ENERGY DECOMPOSITION
--------------------------------


--------------------------------------------------
INTER- vs INTRA-FRAGMENT CORRELATION ENERGIES (Eh)
--------------------------------------------------

                                   Fragment   1            Fragment   2            Fragment   3            
                         ----------------------  ----------------------  ----------------------  
Intra strong pairs               0.000000000000         0.000000000000         0.000000000000  sum=        0.000000000000
Intra weak pairs                 0.000000000000         0.000000000000         0.000000000000  sum=        0.000000000000
Singles contribution            -0.000000000321         0.000000000028        -0.000000000401  sum=       -0.000000000694
                         ----------------------  ----------------------  ----------------------  
                                -0.000000000321         0.000000000028        -0.000000000401  sum=       -0.000000000694


Interaction correlation for Fragments   2 and   1:
--------------------------------------------------
Inter strong pairs               -0.000026611103 (   -0.017 kcal/mol)
Inter weak pairs                 -0.000096248443 (   -0.060 kcal/mol)
                          ----------------------
Total interaction                -0.000122859546 (   -0.077 kcal/mol)

Interaction correlation for Fragments   3 and   1:
--------------------------------------------------
Inter strong pairs               -0.003347258198 (   -2.100 kcal/mol)
Inter weak pairs                 -0.000065968504 (   -0.041 kcal/mol)
                          ----------------------
Total interaction                -0.003413226702 (   -2.142 kcal/mol)
Interaction correlation for Fragments   3 and   2:
--------------------------------------------------
Inter strong pairs               -0.001598426867 (   -1.003 kcal/mol)
Inter weak pairs                 -0.000046163280 (   -0.029 kcal/mol)
                          ----------------------
Total interaction                -0.001644590147 (   -1.032 kcal/mol)



Sum of INTRA-fragment correlation energies  =        -0.000000000694
Sum of INTER-fragment correlation energies  =        -0.005180676395
                                              ---------------------
Total correlation energy                    =        -0.005180677089

---------------------------------------------
DECOMPOSITION OF CCSD STRONG PAIRS INTO      
    DOUBLE EXCITATION TYPES (Eh)             
---------------------------------------------

Foster-Boys localization is used for localizing PNOs

Intra fragment contributions: 
INTRA Fragment 1                        0.000000000 
INTRA Fragment 2                        0.000000000 
INTRA Fragment 3                        0.000000000 

Charge transfer contributions: 
Charge Transfer 1 to 2                 -0.000000012 
Charge Transfer 1 to 3                 -0.000316079 
Charge Transfer 2 to 1                 -0.000000017 
Charge Transfer 2 to 3                 -0.000083051 
Charge Transfer 3 to 1                 -0.000371122 
Charge Transfer 3 to 2                 -0.000083405 

Dispersion contributions: 
Dispersion  2,1                        -0.000026582 
Dispersion  3,1                        -0.002660058 
Dispersion  3,2                        -0.001431971 

Singles contributions:                   
Singles energy                         -0.000000001 
 
Delocalized contributions: 
Delocalized correlation                 0.000000000 

#Time for LED analysis ..       0.0 (sec)



--------------------------------------------------------------------------------
                                    TIMINGS
--------------------------------------------------------------------------------


Total execution time                   ...        5.754 sec

Localization of occupied MO's          ...        0.236 sec (  4.1%)
Fock Matrix Formation                  ...        1.434 sec ( 24.9%)
Global overlap, Fock, MKN matrices     ...        0.216 sec (  3.8%)
Differential overlap integrals         ...        0.336 sec (  5.8%)
Organizing maps                        ...        0.004 sec (  0.1%)
RI 3-index integral generations        ...        1.839 sec ( 32.0%)
RI-PNO integral transformation         ...        0.466 sec (  8.1%)
Initial Guess                          ...        0.465 sec (  8.1%)
DIIS Solver                            ...        0.006 sec (  0.1%)
State Vector Update                    ...        0.000 sec (  0.0%)
Sigma-vector construction              ...        0.355 sec (  6.2%)
  <D|H|D>(0-ext)                       ...        0.043 sec ( 12.0% of sigma)
  <D|H|D>(2-ext)                       ...        0.023 sec (  6.6% of sigma)
  <D|H|D>(4-ext)                       ...        0.009 sec (  2.4% of sigma)
  <D|H|D>(4-ext-corr)                  ...        0.031 sec (  8.7% of sigma)
  CCSD doubles correction              ...        0.008 sec (  2.3% of sigma)
  <S|H|S>                              ...        0.038 sec ( 10.8% of sigma)
  <S|H|D>(1-ext)                       ...        0.025 sec (  7.0% of sigma)
  <S|H|D>(3-ext)                       ...        0.004 sec (  1.2% of sigma)
  Fock-dressing                        ...        0.122 sec ( 34.5% of sigma)
  Singles amplitudes                   ...        0.006 sec (  1.7% of sigma)
  (ik|jl)-dressing                     ...        0.028 sec (  7.8% of sigma)
  (ij|ab),(ia|jb)-dressing             ...        0.012 sec (  3.3% of sigma)
Local Energy Decomposition             ...        0.028 sec (  0.5% of ALL)


Maximum memory used throughout the entire MDCI-calculation: 56.8 MB
----------------------------   ----------------
Inter-fragment dispersion       -0.004326992
----------------------------   ----------------


-------------------------   --------------------
FINAL SINGLE POINT ENERGY     -1580.391194410792 
-------------------------   --------------------


------------------------------------------------------------------------------
                              ORCA PROPERTY CALCULATIONS
------------------------------------------------------------------------------

GBWName                                 ... AR3LD_3.2_2.8_4.8.gbw
Number of atoms                         ...      3
Number of basis functions               ...    150
Max core memory                         ...   1024 MB

Electric properties:
Dipole moment                           ... YES
Quadrupole moment                       ...  NO
Static polarizability (Dipole/Dipole)   ...  NO
Static polarizability (Dipole/Quad.)    ...  NO
Static polarizability (Quad./Quad.)     ...  NO
Static polarizability (Velocity)        ...  NO

Atomic electric properties:
Dipole moment                           ...  NO
Quadrupole moment                       ...  NO
Static polarizability                   ...  NO

Choice of electric origin               ... Center of mass
Position of electric origin             ...     4.377866     1.129892     0.000000

General magnetic properties:
Magnetizability                         ...  NO

EPR properties:
g-Tensor (aka g-matrix)                 ...  NO
Zero-Field splitting spin-orbit         ...  NO
Zero-field splitting spin-spin          ...  NO
Hyperfine couplings                     ...  NO (   0 nuclei)
Quadrupole couplings                    ...  NO (   0 nuclei)
Contact density                         ...  NO (   0 nuclei)

NMR properties:
Chemical shifts                         ...  NO (   0 nuclei)
Spin-rotation constants                 ...  NO (   0 nuclei)
Spin-spin couplings                     ...  NO (   0 nuclei,    0 pairs)

Choice of magnetic origin               ... GIAO
Position of magnetic origin             ...     0.000000     0.000000     0.000000

Properties with geometric perturbations:
SCF Hessian                             ...  NO
IR spectrum                             ...  NO
VCD spectrum                            ...  NO
X-ray spectroscopy properties:
SCF XES/XAS/RIXS spectra                ...  NO


-------------
DIPOLE MOMENT
-------------

Method             : SCF
Type of density    : Electron Density
Multiplicity       :   1
Irrep              :   0
Energy             : -1580.3868674192510753 Eh
Relativity type    : 
Basis              : AO
                                X                 Y                 Z
Electronic contribution:      0.000447277       0.002181964      -0.000000000
Nuclear contribution   :      0.000000000       0.000000000       0.000000000
                        -----------------------------------------
Total Dipole Moment    :      0.000447277       0.002181964      -0.000000000
                        -----------------------------------------
Magnitude (a.u.)       :      0.002227336
Magnitude (Debye)      :      0.005661437



--------------------
Rotational spectrum 
--------------------
 
Rotational constants in cm-1:             0.197605             0.036469             0.030787 
Rotational constants in MHz :          5924.057234          1093.317008           922.976644 

Dipole components along the rotational axes: 
x,y,z [a.u.] :    -0.000378     0.002195    -0.000000 
x,y,z [Debye]:    -0.000961     0.005579    -0.000000 

 

Dipole moment calculation done in   0.0 sec 

Maximum memory used throughout the entire PROP-calculation: 6.8 MB

--------------------------------
SUGGESTED CITATIONS FOR THIS RUN
--------------------------------

Below you find a list of papers that are relevant to this ORCA run
We neither can nor want to force you to cite these papers, but we appreciate if you do
You receive ORCA, which is the product of decades of hard work by many enthusiastic individuals, for free
The only thing we kindly ask in return is that you cite our papers,
We deeply appreciate it, if you show your appreciation for ORCA by not just citing the generic ORCA reference.

Please note that relegating all ORCA citations to the supporting information does *not* help us.
SI sections are not indexed - citations you put there will not count into any citation statistics
But we need these citations in order to attract the funding resources that allow us to do what we are doing

Therefore, if you are a happy ORCA user, please consider citing a few of the papers listed below in the main body of your paper

In addition to the list printed below, the program has created the file AR3LD_3.2_2.8_4.8.bibtex that contains the list in bibtex format
You can import this file easily into all common literature databanks and citation aid programs


List of essential papers. We consider these as the minimum necessary citations

  1. Neese,F.
     Software update: the ORCA program system, version 5.0
     WIRES Comput. Molec. Sci., 2022 12(1)e1606
     doi.org/10.1002/wcms.1606

List of papers to cite with high priority. The work reported in these papers was absolutely
necessary for this run to complete.
Our perspective: the developers of density functionals and basis sets usually get cited in chemistry papers
Good! But without the algorithms to do something with them, the functionals or basis sets would not do anything.
Hence, in our opinion, the algorithm design and method developments papers are equally worthy of getting cited

  1. Neese,F.; Hansen,A.; Liakos,D.G.
     Efficient and accurate approximations to the local coupled cluster singles doubles method using a truncated pair natural orbital basis
     J. Chem. Phys., 2009 131 064103
     doi.org/10.1063/1.3173827
  2. Neese,F.; Wennmohs,F.; Hansen,A.
     Efficient and accurate local approximations to coupled-electron pair approaches: An attempt to revive the pair natural orbital method
     J. Chem. Phys., 2009 130 114108
     doi.org/10.1063/1.3086717
  3. Riplinger,C.; Neese,F.
     An efficient and near linear scaling pair natural orbital based local coupled cluster method
     J. Chem. Phys., 2013 138(3)Art. No. 034106
     doi.org/10.1063/1.4773581
  4. Datta,D.; Kossmann,S.; Neese,F.
     Analytic energy derivatives for the calculation of the first-order molecular properties using the domain-based local pair-natural orbital coupled-cluster theory
     J. Chem. Phys., 2016 145 
     doi.org/10.1063/1.4962369
  5. Riplinger,C.; Pinski,P.; Becker,U.; Valeev,E.F.; Neese,F.
     Sparse maps-A systematic infrastructure for reduced-scaling electronic structure methods. II. Linear scaling domain based pair natural orbital coupled cluster theory
     J. Chem. Phys., 2016 144 
     doi.org/10.1063/1.4939030
  6. Schneider,W.B.; Bistoni,G.; Sparta,M.; Saitow,M.; Riplinger,C.; Auer,A.A.; Neese,F.
     Decomposition of Intermolecular Interaction Energies within the Local Pair Natural Orbital Coupled Cluster Framework
     J. Theo. Comp. Chem., 2016 12 4778-4792
     doi.org/10.1021/acs.jctc.6b00523
  7. Bistoni,G.; Riplinger,C.; Minenkov,Y.; Cavallo,L.; Auer,A.A.; Neese,F.
     Treating Subvalence Correlation Effects in Domain Based Pair Natural Orbital Coupled Cluster Calculations: An Out-of-the-Box Approach
     J. Theo. Comp. Chem., 2017 13 3220-3227
     doi.org/10.1021/acs.jctc.7b00352
  8. Altun,A.; Neese,F.; Bistoni,G.
     HFLD: A Nonempirical London Dispersion-Corrected Hartree-Fock Method for the Quantification and Analysis of Noncovalent Interaction Energies of Large Molecular Systems
     J. Chem. Theory Comput., 2019 15 5894-5907
     doi.org/10.1021/acs.jctc.9b00425
  9. Neese,F.
     The SHARK Integral Generation and Digestion System
     J. Comp. Chem., 2022  1-16
     doi.org/10.1002/jcc.26942
 10. Altun,A.; Neese,F.; Bistoni,G.
     Open-Shell Variant of the London Dispersion-Corrected Hartree–Fock Method (HFLD) for the Quantification and Analysis of Noncovalent Interaction Energies
     J. Chem. Theory Comput., 2022 XX XXXX-XXXX
     doi.org/10.1021/acs.jctc.1c01295

List of suggested additional citations. These are papers that are important in the 'surrounding' of 
of this run, or papers that preceded the highly important papers. If you like your results we are grateful for a citation.

  1. Neese,F.
     The ORCA program system
     WIRES Comput. Molec. Sci., 2012 2(1)73-78
     doi.org/10.1002/wcms.81
  2. Neese,F.
     Software update: the ORCA program system, version 4.0
     WIRES Comput. Molec. Sci., 2018 8(1)1-6
     doi.org/10.1002/wcms.1327
  3. Neese,F.; Wennmohs,F.; Becker,U.; Riplinger,C.
     The ORCA quantum chemistry program package
     J. Chem. Phys., 2020 152 Art. No. L224108
     doi.org/10.1063/5.0004608
  4. Bistoni,G.
     Finding chemical concepts in the Hilbert space: Coupled cluster analyses of noncovalent interactions
     WIRES Comput. Molec. Sci., 2020 10(3)e1442
     doi.org/10.1002/wcms.1442

List of optional additional citations

  1. Neese,F.
     Approximate second-order SCF convergence for spin unrestricted wavefunctions
     Chem. Phys. Lett., 2000 325(1-3)93-98
     doi.org/10.1016/s0009-2614(00)00662-x

Timings for individual modules:

Sum of individual times          ...       15.216 sec (=   0.254 min)
Startup calculation              ...        2.210 sec (=   0.037 min)  14.5 %
SCF iterations                   ...        7.006 sec (=   0.117 min)  46.0 %
Property integrals               ...        0.088 sec (=   0.001 min)   0.6 %
Property calculations            ...        0.117 sec (=   0.002 min)   0.8 %
MDCI module                      ...        5.795 sec (=   0.097 min)  38.1 %
                             ****ORCA TERMINATED NORMALLY****
TOTAL RUN TIME: 0 days 0 hours 0 minutes 15 seconds 310 msec
