
                                 *****************
                                 * O   R   C   A *
                                 *****************

                                            #,                                       
                                            ###                                      
                                            ####                                     
                                            #####                                    
                                            ######                                   
                                           ########,                                 
                                     ,,################,,,,,                         
                               ,,#################################,,                 
                          ,,##########################################,,             
                       ,#########################################, ''#####,          
                    ,#############################################,,   '####,        
                  ,##################################################,,,,####,       
                ,###########''''           ''''###############################       
              ,#####''   ,,,,##########,,,,          '''####'''          '####       
            ,##' ,,,,###########################,,,                        '##       
           ' ,,###''''                  '''############,,,                           
         ,,##''                                '''############,,,,        ,,,,,,###''
      ,#''                                            '''#######################'''  
     '                                                          ''''####''''         
             ,#######,   #######,   ,#######,      ##                                
            ,#'     '#,  ##    ##  ,#'     '#,    #''#        ,####,   ,####,        
            ##       ##  ##   ,#'  ##            #'  '#       #'       #'  '#        
            ##       ##  #######   ##           ,######,      #####,   #    #        
            '#,     ,#'  ##    ##  '#,     ,#' ,#      #,     #,   #   #,  ,#        
             '#######'   ##     ##  '#######'  #'      '#     '####' # '####'        



                #########################################################
                #                        -***-                          #
                #          Department of theory and spectroscopy        #
                #                                                       #
                #                      Frank Neese                      #
                #                                                       #
                #     Directorship, Architecture, Infrastructure        #
                #                    SHARK, DRIVERS                     #
                #        Core code/Algorithms in most modules           #
                #                                                       #
                #        Max Planck Institute fuer Kohlenforschung      #
                #                Kaiser Wilhelm Platz 1                 #
                #                 D-45470 Muelheim/Ruhr                 #
                #                      Germany                          #
                #                                                       #
                #                  All rights reserved                  #
                #                        -***-                          #
                #########################################################


                         Program Version 6.0.0  -   RELEASE  -


 With contributions from (in alphabetic order):
   Daniel Aravena         : Magnetic Suceptibility
   Michael Atanasov       : Ab Initio Ligand Field Theory (pilot matlab implementation)
   Alexander A. Auer      : GIAO ZORA, VPT2 properties, NMR spectrum
   Ute Becker             : All parallelization in ORCA, NUMFREQ, NUMCALC
   Giovanni Bistoni       : ED, misc. LED, open-shell LED, HFLD
   Martin Brehm           : Molecular dynamics
   Dmytro Bykov           : pre 5.0 version of the SCF Hessian
   Marcos Casanova-Páez   : Triplet and SCS-CIS(D). UHF-(DLPNO)-IP/EA/STEOM-CCSD. UHF-CVS-IP/STEOM-CCSD
   Vijay G. Chilkuri      : MRCI spin determinant printing, contributions to CSF-ICE
   Pauline Colinet        : FMM embedding
   Dipayan Datta          : RHF DLPNO-CCSD density
   Achintya Kumar Dutta   : EOM-CC, STEOM-CC
   Nicolas Foglia         : Exact transition moments, OPA infrastructure, MCD improvements
   Dmitry Ganyushin       : Spin-Orbit,Spin-Spin,Magnetic field MRCI
   Miquel Garcia          : C-PCM and meta-GGA Hessian, CCSD/C-PCM, Gaussian charge scheme
   Tiago L. C. Gouveia    : GS-ROHF, GS-ROCIS
   Yang Guo               : DLPNO-NEVPT2, F12-NEVPT2, CIM, IAO-localization
   Andreas Hansen         : Spin unrestricted coupled pair/coupled cluster methods
   Ingolf Harden          : AUTO-CI MPn and infrastructure 
   Benjamin Helmich-Paris : MC-RPA, TRAH-(SCF,CASSCF), AVAS, COSX integrals, SCF dyn. polar.
   Lee Huntington         : MR-EOM, pCC
   Robert Izsak           : Overlap fitted RIJCOSX, COSX-SCS-MP3, EOM
   Riya Kayal             : Wick's Theorem for AUTO-CI, AUTO-CI UHF-CCSDT
   Emily Kempfer          : AUTO-CI, RHF CISDT and CCSDT
   Christian Kollmar      : KDIIS, OOCD, Brueckner-CCSD(T), CCSD density, CASPT2, CASPT2-K, improved NEVPT2
   Axel Koslowski         : Symmetry handling
   Simone Kossmann        : Meta GGA functionals, TD-DFT gradient, OOMP2, (MP2 Hessian; deprecated post 5.0)
   Lucas Lang             : DCDCAS
   Marvin Lechner         : AUTO-CI (C++ implementation), FIC-MRCC
   Spencer Leger          : CASSCF response
   Dagmar Lenk            : GEPOL surface, SMD, ORCA-2-JSON
   Dimitrios Liakos       : Extrapolation schemes; Compound Job, initial MDCI parallelization
   Dimitrios Manganas     : Further ROCIS development; embedding schemes. LFT, Crystal Embedding
   Dimitrios Pantazis     : SARC Basis sets
   Anastasios Papadopoulos: AUTO-CI, single reference methods and gradients
   Taras Petrenko         : pre 6.0 DFT Hessian and TD-DFT gradient, (ASA, deprecated), ECA, 1-Electron XAS/XES, NRVS
   Peter Pinski           : DLPNO-MP2, DLPNO-MP2 Gradient
   Christoph Reimann      : Effective Core Potentials
   Marius Retegan         : Local ZFS, SOC
   Christoph Riplinger    : Optimizer, TS searches, QM/MM, DLPNO-CCSD(T), (RO)-DLPNO pert. Triples
   Michael Roemelt        : Original ROCIS implementation
   Masaaki Saitow         : Open-shell DLPNO-CCSD energy and density
   Barbara Sandhoefer     : DKH picture change effects
   Kantharuban Sivalingam : CASSCF convergence/infrastructure, NEVPT2 and variants, FIC-MRCI
   Bernardo de Souza      : ESD, SOC TD-DFT
   Georgi Stoychev        : AutoAux, RI-MP2 NMR, DLPNO-MP2 response, X2C
   Van Anh Tran           : RI-MP2 g-tensors
   Willem Van den Heuvel  : Paramagnetic NMR
   Zikuan Wang            : NOTCH, Electric field optimization 
   Frank Wennmohs         : Technical directorship and infrastructure
   Hang Xu                : AUTO-CI-Response properties 


 We gratefully acknowledge several colleagues who have allowed us to
 interface, adapt or use parts of their codes:
   Stefan Grimme, W. Hujo, H. Kruse, P. Pracht,  : VdW corrections, initial TS optimization,
                  C. Bannwarth, S. Ehlert,         DFT functionals, gCP, sTDA/sTD-DF
                  L. Wittmann, M. Mueller
   Ed Valeev, F. Pavosevic, A. Kumar             : LibInt (2-el integral package), F12 methods
   Garnet Chan, S. Sharma, J. Yang, R. Olivares  : DMRG
   Ulf Ekstrom                                   : XCFun DFT Library
   Mihaly Kallay                                 : mrcc  (arbitrary order and MRCC methods)
   Frank Weinhold                                : gennbo (NPA and NBO analysis)
   Simon Mueller                                 : openCOSMO-RS
   Christopher J. Cramer and Donald G. Truhlar   : smd solvation model
   Lars Goerigk                                  : TD-DFT with DH, B97 family of functionals
   V. Asgeirsson, H. Jonsson                     : NEB implementation
   FAccTs GmbH                                   : IRC, NEB, NEB-TS, DLPNO-Multilevel, CI-OPT
                                                   MM, QMMM, 2- and 3-layer-ONIOM, Crystal-QMMM,
                                                   LR-CPCM, SF, NACMEs, symmetry and pop. for TD-DFT,
                                                   nearIR, NL-DFT gradient (VV10), updates on ESD,
                                                   ML-optimized integration grids, MBIS, APM,
                                                   GOAT, DOCKER, SOLVATOR, interface openCOSMO-RS
   S Lehtola, MJT Oliveira, MAL Marques          : LibXC Library
   Liviu Ungur et al                             : ANISO software


 Your calculation uses the libint2 library for the computation of 2-el integrals
 For citations please refer to: http://libint.valeyev.net

 Your ORCA version has been built with support for libXC version: 6.2.2
 For citations please refer to: https://libxc.gitlab.io

 This ORCA versions uses:
   CBLAS   interface :  Fast vector & matrix operations
   LAPACKE interface :  Fast linear algebra routines
   SCALAPACK package :  Parallel linear algebra routines
   Shared memory     :  Shared parallel matrices
   BLAS/LAPACK       :  OpenBLAS 0.3.27  USE64BITINT DYNAMIC_ARCH NO_AFFINITY Haswell SINGLE_THREADED
        Core in use  :  Haswell
   Copyright (c) 2011-2014, The OpenBLAS Project


================================================================================

----- Orbital basis set information -----
Your calculation utilizes the basis: aug-cc-pVDZ 
    H, B-Ne : Obtained from the ccRepo (grant-hill.group.shef.ac.uk/ccrepo) Feb. 2017
              R. A. Kendall, T. H. Dunning, Jr., R. J. Harrison, J. Chem. Phys. 96, 6796 (1992)
         He : Obtained from the ccRepo (grant-hill.group.shef.ac.uk/ccrepo) Feb. 2017
              D. E. Woon, T. H. Dunning, Jr., J. Chem. Phys. 100, 2975 (1994)
  Li-Be, Na : Obtained from the ccRepo (grant-hill.group.shef.ac.uk/ccrepo) Feb. 2017
              B. P. Prascher, D. E. Woon, K. A. Peterson, T. H. Dunning, Jr., A. K. Wilson, Theor. Chem. Acc. 128, 69 (2011)
         Mg : Obtained from the Peterson Research Group Website (tyr0.chem.wsu.edu/~kipeters) Feb. 2017
              B. P. Prascher, D. E. Woon, K. A. Peterson, T. H. Dunning, Jr., A. K. Wilson, Theor. Chem. Acc. 128, 69 (2011)
      Al-Ar : Obtained from the ccRepo (grant-hill.group.shef.ac.uk/ccrepo) Feb. 2017
              D. E. Woon, T. H. Dunning, Jr., J. Chem. Phys. 98, 1358 (1993)
      Sc-Zn : Obtained from the ccRepo (grant-hill.group.shef.ac.uk/ccrepo) Feb. 2017
              N. B. Balabanov, K. A. Peterson, J. Chem. Phys. 123, 064107 (2005)
              N. B. Balabanov, K. A. Peterson, J. Chem. Phys. 125, 074110 (2006)
      Ga-Kr : Obtained from the ccRepo (grant-hill.group.shef.ac.uk/ccrepo) Feb. 2017
              A. K. Wilson, D. E. Woon, K. A. Peterson, T. H. Dunning, Jr., J. Chem. Phys. 110, 7667 (1999)

----- AuxC basis set information -----
Your calculation utilizes the auxiliary basis: aug-cc-pVDZ/C 
  H-He, B, Ne, Al-Ar, Ga-Ge, Se-Br : Obtained from the EMSL Basis Set Exchange (bse.pnl.gov) Feb. 2017
                                     F. Weigend, A. Kohn, C. Hattig, J. Chem. Phys. 116, 3175 (2002)
                            Be, Mg : Obtained from the TURBOMOLE 7.0 basis set library
                                     C. Haettig, Phys. Chem. Chem. Phys. 7, 59 (2005)
                               C-F : Obtained from the EMSL Basis Set Exchange (bse.pnl.gov) Feb. 2017
                                     C. Haettig, Phys. Chem. Chem. Phys. 7, 59 (2005)
                                     F. Weigend, A. Kohn, C. Hattig, J. Chem. Phys. 116, 3175 (2002)
                                As : Obtained from the EMSL Basis Set Exchange (bse.pnl.gov) Feb. 2017
                                     C. Haettig, G. Schmitz, J. Kossmann, Phys. Chem. Chem. Phys. 14, 6549 (2012)
                                Kr : Obtained from the TURBOMOLE 7.0 basis set library
                                     F. Weigend, A. Kohn, C. Hattig, J. Chem. Phys. 116, 3175 (2002)
                                     S function revised in Sep. 2009

================================================================================
                                        WARNINGS
                       Please study these warnings very carefully!
================================================================================


WARNING: Post HF methods need fully converged wavefunctions
  ===> : Setting SCFConvForced true
         You can overwrite this default with %scf ConvForced false 


================================================================================
                                       INPUT FILE
================================================================================
NAME = AR3LD_3.2_3.6_2.8.inp
|  1> # MP2 scan of the potential energy curve for Ar...Ar
|  2>                 ! HFLD aug-cc-pvdz aug-cc-pvdz/C verytightscf
|  3>                 *xyz 0 1
|  4>                 Ar(1)	0    0	0.00000000000000
|  5>                 Ar(2)	2.8	0    0.00000000000000
|  6>                 Ar(3)	1.8857142857142857	3.066607511999712    0.00000000000000
|  7>                 **                         ****END OF INPUT****
================================================================================

                       ****************************
                       * Single Point Calculation *
                       ****************************

---------------------------------
CARTESIAN COORDINATES (ANGSTROEM)
---------------------------------
  Ar     0.000000    0.000000    0.000000
  Ar     2.800000    0.000000    0.000000
  Ar     1.885714    3.066608    0.000000

----------------------------
CARTESIAN COORDINATES (A.U.)
----------------------------
  NO LB      ZA    FRAG     MASS         X           Y           Z
   0 Ar   18.0000    1    39.948    0.000000    0.000000    0.000000
   1 Ar   18.0000    2    39.948    5.291233    0.000000    0.000000
   2 Ar   18.0000    3    39.948    3.563484    5.795048    0.000000

----------------------------------------------
CARTESIAN COORDINATES OF FRAGMENTS (ANGSTROEM)
----------------------------------------------

 FRAGMENT 1 
  Ar    0.000000    0.000000    0.000000

 FRAGMENT 2 
  Ar    2.800000    0.000000    0.000000

 FRAGMENT 3 
  Ar    1.885714    3.066608    0.000000

--------------------------------
INTERNAL COORDINATES (ANGSTROEM)
--------------------------------
 Ar     0   0   0     0.000000000000     0.00000000     0.00000000
 Ar     1   0   0     2.800000000000     0.00000000     0.00000000
 Ar     2   1   0     3.200000000000    73.39845040     0.00000000

---------------------------
INTERNAL COORDINATES (A.U.)
---------------------------
 Ar     0   0   0     0.000000000000     0.00000000     0.00000000
 Ar     1   0   0     5.291233174980     0.00000000     0.00000000
 Ar     2   1   0     6.047123628548    73.39845040     0.00000000

---------------------
BASIS SET INFORMATION
---------------------
There are 1 groups of distinct atoms

 Group   1 Type Ar  : 35s16p2d contracted to 5s4p2d pattern {11111111/7711/11}

Atom   0Ar   basis set group =>   1
Atom   1Ar   basis set group =>   1
Atom   2Ar   basis set group =>   1
---------------------------------
AUXILIARY/C BASIS SET INFORMATION
---------------------------------
There are 1 groups of distinct atoms

 Group   1 Type Ar  : 10s8p6d4f contracted to 10s8p6d4f pattern {1111111111/11111111/111111/1111}

Atom   0Ar   basis set group =>   1
Atom   1Ar   basis set group =>   1
Atom   2Ar   basis set group =>   1
------------------------------------------------------------------------------
                             ORCA STARTUP CALCULATIONS
------------------------------------------------------------------------------
------------------------------------------------------------------------------
                   ___                                                        
                  /   \      - P O W E R E D   B Y -                         
                 /     \                                                     
                 |  |  |   _    _      __       _____    __    __             
                 |  |  |  | |  | |    /  \     |  _  \  |  |  /  |          
                  \  \/   | |  | |   /    \    | | | |  |  | /  /          
                 / \  \   | |__| |  /  /\  \   | |_| |  |  |/  /          
                |  |  |   |  __  | /  /__\  \  |    /   |      \           
                |  |  |   | |  | | |   __   |  |    \   |  |\   \          
                \     /   | |  | | |  |  |  |  | |\  \  |  | \   \       
                 \___/    |_|  |_| |__|  |__|  |_| \__\ |__|  \__/        
                                                                              
                      - O R C A' S   B I G   F R I E N D -                    
                                      &                                       
                       - I N T E G R A L  F E E D E R -                       
                                                                              
 v1 FN, 2020, v2 2021, v3 2022-2024                                           
------------------------------------------------------------------------------


----------------------
SHARK INTEGRAL PACKAGE
----------------------

Number of atoms                             ...      3
Number of basis functions                   ...    150
Number of shells                            ...     72
Maximum angular momentum                    ...      2
Integral batch strategy                     ... SHARK/LIBINT Hybrid
RI-J (if used) integral strategy            ... SPLIT-RIJ (Revised 2003 algorithm where possible)
Printlevel                                  ...      1
Contraction scheme used                     ... PARTIAL GENERAL contraction
Prescreening option                         ... SCHWARTZ
   Thresh                                   ... 1.000e-12
   Tcut                                     ... 1.000e-14
   Tpresel                                  ... 1.000e-14 
Coulomb Range Separation                    ... NOT USED
Exchange Range Separation                   ... NOT USED
Multipole approximations                    ... NOT USED
Finite Nucleus Model                        ... NOT USED
CABS basis                                  ... NOT available
Auxiliary Coulomb fitting basis             ... NOT available
Auxiliary J/K fitting basis                 ... NOT available
Auxiliary Correlation fitting basis         ... AVAILABLE
   # of basis functions in Aux-C            ...    276
   # of shells in Aux-C                     ...     84
   Maximum angular momentum in Aux-C        ...      3
Auxiliary 'external' fitting basis          ... NOT available

Checking pre-screening integrals            ... done (  0.0 sec) Dimension = 72
Save PGC pre-screening integrals            ... done (  0.0 sec) Dimension = 72
Calculate PGC overlap integrals             ... done (  0.0 sec) Dimension = 33
Calculating pre-screening integrals (ORCA)  ... done (  0.2 sec) Dimension = 33
Check shell pair data                       ... done (  0.0 sec)
Shell pair information
Shell pair cut-off parameter TPreSel        ...   1.0e-14
Total number of shell pairs                 ...      2628
Shell pairs after pre-screening             ...      1842
Total number of primitive shell pairs       ...      2628
Primitive shell pairs kept                  ...      1842
          la=0 lb=0:    470 shell pairs
          la=1 lb=0:    693 shell pairs
          la=1 lb=1:    274 shell pairs
          la=2 lb=0:    224 shell pairs
          la=2 lb=1:    160 shell pairs
          la=2 lb=2:     21 shell pairs

Calculating one electron integrals          ... done (  0.0 sec)
Calculating RI/C V-Matrix + Cholesky decomp.... done (  0.0 sec)
Calculating Nuclear repulsion               ... done (  0.0 sec) ENN=    162.438503762089 Eh

Diagonalization of the overlap matrix:
Smallest eigenvalue                        ... 1.572e-02
Time for diagonalization                   ...    0.001 sec
Threshold for overlap eigenvalues          ... 1.000e-07
Number of eigenvalues below threshold      ... 0
Time for construction of square roots      ...    0.000 sec
Total time needed                          ...    0.001 sec

-------------------
DFT GRID GENERATION
-------------------

General Integration Accuracy     IntAcc      ... 4.388
Radial Grid Type                 RadialGrid  ... OptM3 with GC (2021)
Angular Grid (max. ang.)         AngularGrid ... 4 (Lebedev-302)
Angular grid pruning method      GridPruning ... 4 (adaptive)
Weight generation scheme         WeightScheme... mBecke (2022)
Basis function cutoff            BFCut       ... 1.0000e-12
Integration weight cutoff        WCut        ... 1.0000e-14
Partially contracted basis set               ... off
Rotationally invariant grid construction     ... off
Angular grids for H and He will be reduced by one unit

Total number of grid points                  ...    22067
Total number of batches                      ...      346
Average number of points per batch           ...       63
Average number of grid points per atom       ...     7356

---------------------
SHARK GRID GENERATION
---------------------

General Integration Accuracy     IntAcc      ... 4.388
Radial Grid Type                 RadialGrid  ... OptM3 with GC (2021)
Angular Grid (max. ang.)         AngularGrid ... 4 (Lebedev-302)
Angular grid pruning method      GridPruning ... 4 (adaptive)
Weight generation scheme         WeightScheme... mBecke (2022)
Basis function cutoff            BFCut       ... 1.0000e-12
Integration weight cutoff        WCut        ... 1.0000e-14
Partially contracted basis set               ... off
Rotationally invariant grid construction     ... off
Angular grids for H and He will be reduced by one unit
Core-polarized basis detected: some atoms will have their core
                               angular grid increased.
Steep s-basis detected: some atoms will have their radial
                        grid points doubled.

Total number of grid points                  ...    57990
Total number of batches                      ...      908
Average number of points per batch           ...       63
Average number of grid points per atom       ...    19330
Initializing property integral containers    ... done (  0.0 sec)

SHARK setup successfully completed in   2.3 seconds

Maximum memory used throughout the entire STARTUP-calculation: 27.6 MB
-------------------------------------------------------------------------------
                                 ORCA GUESS
                   Start orbitals & Density for SCF / CASSCF
-------------------------------------------------------------------------------

------------
SCF SETTINGS
------------
Hamiltonian:
 Ab initio Hamiltonian  Method          .... Hartree-Fock(GTOs)


General Settings:
 Integral files         IntName         .... AR3LD_3.2_3.6_2.8
 Hartree-Fock type      HFTyp           .... RHF
 Total Charge           Charge          ....    0
 Multiplicity           Mult            ....    1
 Number of Electrons    NEL             ....   54
 Basis Dimension        Dim             ....   81
 Nuclear Repulsion      ENuc            ....    162.4385037621 Eh

Convergence Acceleration:
 AO-DIIS                CNVDIIS         .... on
   Start iteration      DIISMaxIt       ....    12
   Startup error        DIISStart       ....  0.200000
   # of expansion vecs  DIISMaxEq       ....     5
   Bias factor          DIISBfac        ....   1.050
   Max. coefficient     DIISMaxC        ....  10.000
 MO-DIIS                CNVKDIIS        .... off
 Trust-Rad. Augm. Hess. CNVTRAH         .... auto
   Auto Start mean grad. ratio tolernc. ....  1.125000
   Auto Start start iteration           ....    50
   Auto Start num. interpolation iter.  ....    10
   Max. Number of Micro iterations      ....    24
   Max. Number of Macro iterations      .... Maxiter - #DIIS iter
   Number of Davidson start vectors     ....     2
   Converg. threshold    (grad. norm)   ....   2.000e-06
   Grad. Scal. Fac. for Micro threshold ....   0.100
   Minimum threshold for Micro iter.    ....   1.000e-02
   NR start threshold (gradient norm)   ....   1.000e-04
   Initial trust radius                 ....   0.400
   Minimum AH scaling param. (alpha)    ....   1.000
   Maximum AH scaling param. (alpha)    .... 1000.000
   Quad. conv. algorithm                .... NR
   White noise on init. David. guess    .... on
   Maximum white noise                  ....   0.010
   Pseudo random numbers                .... off
   Inactive MOs                         .... canonical
   Orbital update algorithm             .... Taylor
   Preconditioner                       .... Diag
   Full preconditioner red. dimension   ....   250
 SOSCF                  CNVSOSCF        .... on
   Start iteration      SOSCFMaxIt      ....   150
   Startup grad/error   SOSCFStart      ....  0.003300
   Hessian update       SOSCFHessUp     .... L-BFGS
 Level Shifting         CNVShift        .... on
   Level shift para.    LevelShift      ....    0.2500
   Turn off err/grad.   ShiftErr        ....    0.0010
 Zerner damping         CNVZerner       .... off
 Static damping         CNVDamp         .... on
   Fraction old density DampFac         ....    0.7000
   Max. Damping (<1)    DampMax         ....    0.9800
   Min. Damping (>=0)   DampMin         ....    0.0000
   Turn off err/grad.   DampErr         ....    0.1000

SCF Procedure:
 Maximum # iterations   MaxIter         ....   125
 SCF integral mode      SCFMode         .... Direct
   Integral package                     .... SHARK and LIBINT hybrid scheme
 Reset frequency        DirectResetFreq ....    20
 Integral Threshold     Thresh          ....  1.000e-12 Eh
 Primitive CutOff       TCut            ....  1.000e-14 Eh

Convergence Tolerance:
 Convergence Check Mode ConvCheckMode   .... Total+1el-Energy
 Convergence forced     ConvForced      .... 1
 Energy Change          TolE            ....  1.000e-09 Eh
 1-El. energy change                    ....  1.000e-06 Eh
 Orbital Gradient       TolG            ....  2.000e-06
 Orbital Rotation angle TolX            ....  2.000e-06
 DIIS Error             TolErr          ....  1.000e-08

------------------------------
INITIAL GUESS: MODEL POTENTIAL
------------------------------
Loading Hartree-Fock densities                     ... done
Calculating cut-offs                               ... done
Initializing the effective Hamiltonian             ... done
Setting up the integral package (SHARK)            ... done
Starting the Coulomb interaction                   ... done (   0.0 sec)
Making the grid                                    ... done (   0.1 sec)
Mapping shells                                     ... done
Starting the XC term evaluation                    ... done (   0.0 sec)
Transforming the Hamiltonian                       ... done (   0.0 sec)
Diagonalizing the Hamiltonian                      ... done (   0.0 sec)
Back transforming the eigenvectors                 ... done (   0.0 sec)
Now organizing SCF variables                       ... done
                      ------------------
                      INITIAL GUESS DONE (   0.1 sec)
                      ------------------
             **** ENERGY FILE WAS UPDATED (AR3LD_3.2_3.6_2.8.en.tmp) ****
Finished Guess after   0.2 sec
Maximum memory used throughout the entire GUESS-calculation: 6.8 MB

-------------------------------------------------------------------------------------------
                                      ORCA LEAN-SCF
                              memory conserving SCF solver
-------------------------------------------------------------------------------------------

----------------------------------------D-I-I-S--------------------------------------------
Iteration    Energy (Eh)           Delta-E    RMSDP     MaxDP     DIISErr   Damp  Time(sec)
-------------------------------------------------------------------------------------------
               ***  Starting incremental Fock matrix formation  ***
    1    -1580.3668557581688674     0.00e+00  1.14e-03  1.79e-02  9.18e-02  0.700   0.8
    2    -1580.3723460661242370    -5.49e-03  8.97e-04  1.30e-02  6.58e-02  0.700   0.8
                               ***Turning on AO-DIIS***
    3    -1580.3763556779908868    -4.01e-03  7.18e-04  9.56e-03  4.68e-02  0.700   0.8
    4    -1580.3792484041880471    -2.89e-03  1.76e-03  2.24e-02  3.29e-02  0.000   0.7
                              *** Initializing SOSCF ***
---------------------------------------S-O-S-C-F--------------------------------------
Iteration    Energy (Eh)           Delta-E    RMSDP     MaxDP     MaxGrad    Time(sec)
--------------------------------------------------------------------------------------
    5    -1580.3863497293289129    -7.10e-03  9.06e-05  1.01e-03  1.08e-03     0.7
               *** Restarting incremental Fock matrix formation ***
    6    -1580.3863598757832278    -1.01e-05  4.27e-05  5.55e-04  2.46e-04     0.8
    7    -1580.3863615764778388    -1.70e-06  1.55e-05  1.82e-04  6.01e-05     0.7
    8    -1580.3863616853827807    -1.09e-07  8.70e-07  1.53e-05  7.63e-06     0.7
    9    -1580.3863616859405283    -5.58e-10  1.71e-07  2.80e-06  1.28e-06     0.7
                 **** Energy Check signals convergence ****

               *****************************************************
               *                     SUCCESS                       *
               *           SCF CONVERGED AFTER   9 CYCLES          *
               *****************************************************

             **** ENERGY FILE WAS UPDATED (AR3LD_3.2_3.6_2.8.en.tmp) ****

----------------
TOTAL SCF ENERGY
----------------

Total Energy       :      -1580.38636168594053 Eh          -43004.49921 eV

Components:
Nuclear Repulsion  :        162.43850376208928 Eh            4420.17640 eV
Electronic Energy  :      -1742.82486544802987 Eh          -47424.67561 eV
One Electron Energy:      -2509.55648391746126 Eh          -68288.50365 eV
Two Electron Energy:        766.73161846943140 Eh           20863.82804 eV

Virial components:
Potential Energy   :      -3160.94344364721474 Eh          -86013.64395 eV
Kinetic Energy     :       1580.55708196127398 Eh           43009.14474 eV
Virial Ratio       :          1.99989198727633

---------------
SCF CONVERGENCE
---------------

  Last Energy change         ...    5.5775e-10  Tolerance :   1.0000e-09
  Last MAX-Density change    ...    2.7980e-06  Tolerance :   1.0000e-08
  Last RMS-Density change    ...    1.7099e-07  Tolerance :   1.0000e-09
  Last DIIS Error            ...    1.0812e-03  Tolerance :   1.0000e-08
  Last Orbital Gradient      ...    1.2849e-06  Tolerance :   2.0000e-06
  Last Orbital Rotation      ...    1.8595e-06  Tolerance :   2.0000e-06


----------------
ORBITAL ENERGIES
----------------

  NO   OCC          E(Eh)            E(eV) 
   0   2.0000    -118.609080     -3227.5171 
   1   2.0000    -118.605536     -3227.4207 
   2   2.0000    -118.604206     -3227.3845 
   3   2.0000     -12.321481      -335.2846 
   4   2.0000     -12.318630      -335.2070 
   5   2.0000     -12.317482      -335.1757 
   6   2.0000      -9.570073      -260.4149 
   7   2.0000      -9.570062      -260.4146 
   8   2.0000      -9.570059      -260.4145 
   9   2.0000      -9.567225      -260.3374 
  10   2.0000      -9.567128      -260.3348 
  11   2.0000      -9.567124      -260.3347 
  12   2.0000      -9.566067      -260.3059 
  13   2.0000      -9.565976      -260.3034 
  14   2.0000      -9.565968      -260.3032 
  15   2.0000      -1.288796       -35.0699 
  16   2.0000      -1.278168       -34.7807 
  17   2.0000      -1.269322       -34.5400 
  18   2.0000      -0.634943       -17.2777 
  19   2.0000      -0.614655       -16.7256 
  20   2.0000      -0.600753       -16.3473 
  21   2.0000      -0.596898       -16.2424 
  22   2.0000      -0.590790       -16.0762 
  23   2.0000      -0.582822       -15.8594 
  24   2.0000      -0.582267       -15.8443 
  25   2.0000      -0.571200       -15.5431 
  26   2.0000      -0.549913       -14.9639 
  27   0.0000       0.115242         3.1359 
  28   0.0000       0.119598         3.2544 
  29   0.0000       0.135706         3.6927 
  30   0.0000       0.136078         3.7029 
  31   0.0000       0.169690         4.6175 
  32   0.0000       0.173484         4.7207 
  33   0.0000       0.174148         4.7388 
  34   0.0000       0.178291         4.8515 
  35   0.0000       0.208122         5.6633 
  36   0.0000       0.211900         5.7661 
  37   0.0000       0.302237         8.2243 
*Only the first 10 virtual orbitals were printed.

                    ********************************
                    * MULLIKEN POPULATION ANALYSIS *
                    ********************************

-------------------------
MULLIKEN FRAGMENT CHARGES
-------------------------
 Fragment   0 :  -0.000451
 Fragment   1 :   0.000874
 Fragment   2 :  -0.000422
Sum of fragment charges:    0.0000000

---------------------------------
MULLIKEN FRAGMENT OVERLAP CHARGES
---------------------------------
                  0          1          2    
      0      18.064859  -0.126659  -0.002156
      1      -0.126659  18.077362  -0.029812
      2      -0.002156  -0.029812  18.016407

-----------------------
MULLIKEN ATOMIC CHARGES
-----------------------
   0 Ar:   -0.000451
   1 Ar:    0.000874
   2 Ar:   -0.000422
Sum of atomic charges:    0.0000000

--------------------------------
MULLIKEN REDUCED ORBITAL CHARGES
--------------------------------
  0 Ars       :     5.994824  s :     5.994824
      pz      :     3.999657  p :    12.004093
      px      :     4.004292
      py      :     4.000145
      dz2     :     0.000166  d :     0.001534
      dxz     :     0.000337
      dyz     :     0.000022
      dx2y2   :     0.000610
      dxy     :     0.000400

  1 Ars       :     5.992611  s :     5.992611
      pz      :     3.999539  p :    12.004850
      px      :     4.003946
      py      :     4.001365
      dz2     :     0.000106  d :     0.001665
      dxz     :     0.000336
      dyz     :     0.000087
      dx2y2   :     0.000761
      dxy     :     0.000373

  2 Ars       :     5.997603  s :     5.997603
      pz      :     3.999900  p :    12.002352
      px      :     4.000284
      py      :     4.002168
      dz2     :     0.000036  d :     0.000468
      dxz     :     0.000017
      dyz     :     0.000104
      dx2y2   :     0.000067
      dxy     :     0.000244



                     *******************************
                     * LOEWDIN POPULATION ANALYSIS *
                     *******************************

------------------------
LOEWDIN FRAGMENT CHARGES
------------------------
 Fragment   0 :   0.000567
 Fragment   1 :  -0.003809
 Fragment   2 :   0.003242

----------------------------
LOEWDIN FRAGMENT BOND ORDERS
----------------------------
                  0          1          2    
      0      17.999433   0.282070   0.056683
      1       0.282070  18.003809   0.126557
      2       0.056683   0.126557  17.996758

----------------------
LOEWDIN ATOMIC CHARGES
----------------------
   0 Ar:    0.000567
   1 Ar:   -0.003809
   2 Ar:    0.003242

-------------------------------
LOEWDIN REDUCED ORBITAL CHARGES
-------------------------------
  0 Ars       :     5.968576  s :     5.968576
      pz      :     3.998477  p :    12.006723
      px      :     4.007186
      py      :     4.001060
      dz2     :     0.005326  d :     0.024134
      dxz     :     0.001479
      dyz     :     0.000014
      dx2y2   :     0.015625
      dxy     :     0.001691

  1 Ars       :     5.963618  s :     5.963618
      pz      :     3.998492  p :    12.011991
      px      :     4.007177
      py      :     4.006322
      dz2     :     0.006379  d :     0.028200
      dxz     :     0.001500
      dyz     :     0.000187
      dx2y2   :     0.017689
      dxy     :     0.002445

  2 Ars       :     5.980784  s :     5.980784
      pz      :     3.999642  p :    12.010417
      px      :     4.000919
      py      :     4.009857
      dz2     :     0.001250  d :     0.005557
      dxz     :     0.000027
      dyz     :     0.000183
      dx2y2   :     0.002355
      dxy     :     0.001743



                      *****************************
                      * MAYER POPULATION ANALYSIS *
                      *****************************

  NA   - Mulliken gross atomic population
  ZA   - Total nuclear charge
  QA   - Mulliken gross atomic charge
  VA   - Mayer's total valence
  BVA  - Mayer's bonded valence
  FA   - Mayer's free valence

  ATOM       NA         ZA         QA         VA         BVA        FA
  0 Ar    18.0005    18.0000    -0.0005    -0.0261    -0.0261     0.0000
  1 Ar    17.9991    18.0000     0.0009    -0.0345    -0.0345    -0.0000
  2 Ar    18.0004    18.0000    -0.0004    -0.0036    -0.0036    -0.0000

  Mayer bond orders larger than 0.100000
  => no bond orders to print

-------
TIMINGS
-------

Total SCF time: 0 days 0 hours 0 min 6 sec 

Total time                  ....       6.792 sec
Sum of individual times     ....       6.778 sec  ( 99.8%)

SCF preparation             ....       0.052 sec  (  0.8%)
Fock matrix formation       ....       6.688 sec  ( 98.5%)
  Startup                   ....       0.002 sec  (  0.0% of F)
  Coulomb+Exchange Fock     ....       6.681 sec  ( 99.9% of F)
Diagonalization             ....       0.000 sec  (  0.0%)
Density matrix formation    ....       0.006 sec  (  0.1%)
Total Energy calculation    ....       0.001 sec  (  0.0%)
Population analysis         ....       0.004 sec  (  0.1%)
Orbital Transformation      ....       0.004 sec  (  0.1%)
Orbital Orthonormalization  ....       0.000 sec  (  0.0%)
DIIS solution               ....       0.014 sec  (  0.2%)
SOSCF solution              ....       0.008 sec  (  0.1%)
Finished LeanSCF after   6.8 sec

Maximum memory used throughout the entire LEANSCF-calculation: 8.8 MB

------------------------------------------------------------------------------
                         ORCA PROPERTY INTEGRAL CALCULATIONS
------------------------------------------------------------------------------

GBWName                                   ... AR3LD_3.2_3.6_2.8.gbw
Number of atoms                           ...      3
Number of basis functions                 ...    150
Max core memory                           ...   1024 MB

Dipole integrals                          ... YES
Quadrupole integrals                      ...  NO
Linear momentum integrals                 ... YES
Angular momentum integrals                ... YES
Higher moments length integrals           ...  NO
Higher moments velocity integrals         ...  NO
Kinetic energy integrals                  ...  NO
GIAO right hand sides                     ...  NO
GIAO dipole derivative integrals          ...  NO
SOC integrals                             ...  NO
EPR diamagnetic integrals (GIAO)          ...  NO
EPR gauge integrals                       ...  NO
Field gradient integrals                  ...  NO (   0 nuclei)
Spin-dipole/Fermi contact integrals       ...  NO (   0 nuclei)
Contact density integrals                 ...  NO (   0 nuclei)
Nucleus-orbit integrals                   ...  NO (   0 nuclei)
Geometric perturbations                   ...  NO (   3 nuclei)

Choice of electric origin   ... Center of mass
Position of electric origin ... (  2.9516,  1.9317,  0.0000) 
Choice of magnetic origin   ... GIAO
Position of magnetic origin ... (  0.0000,  0.0000,  0.0000) 

Calculating integrals                     ... Electric Dipole (Length)     done (  0.0 sec)
Calculating integrals                     ... Linear Momentum              done (  0.0 sec)
Calculating integrals                     ... Angular Momentum  (ElOri)    done (  0.0 sec)

Property integrals calculated in   0.0 sec

Maximum memory used throughout the entire PROPINT-calculation: 6.9 MB


--------------------------------------------------------------------------------
                             ORCA-MATRIX DRIVEN CI
--------------------------------------------------------------------------------


Wavefunction type
-----------------
Correlation treatment                      ...      CCSD     
Single excitations                         ... ON
Orbital optimization                       ... OFF
Calculation of Z vector                    ... OFF
Calculation of Brueckner orbitals          ... OFF
Perturbative triple excitations            ... OFF
Calculation of F12 correction              ... OFF
Frozen core treatment                      ... chemical core (30 el)
Reference Wavefunction                     ... RHF
  Internal Orbitals:    15 ...   26 ( 12 MO's/ 24 electrons)
  Virtual  Orbitals:    27 ...   80 ( 54 MO's              )
Number of AO's                             ...     81
Number of electrons                        ...     54
Number of correlated electrons             ...     24

Algorithmic settings
--------------------
Integral transformation                    ... All integrals via the RI transformation
K(C) Formation                             ... RI-DLPNO
   PNO-Integral Storage                    ... ON DISK
   PNO occupation number cut-off           ... 3.330e-07
   Singles PNO occupation number cut-off   ... 9.990e-09
   PNO Mulliken prescreening cut-off       ... 1.000e-03
   Domain cut-off (Mulliken population)    ... 1.000e-03
   PNO Normalization                       ...    1
Maximum number of iterations               ...        50
Convergence tolerance (max. residuum)      ... 1.000e-06
Level shift for amplitude update           ... 2.000e-01
Maximum number of DIIS vectors             ...         7
DIIS turned on at iteration                ...         0
Damping before turning on DIIS             ...     0.500
Damping after turning on DIIS              ...     0.000
Pair specific amplitude update             ... OFF
Natural orbital iterations                 ... OFF
Perturbative natural orbital generation    ... OFF
Printlevel                                 ... 2

Singles Fock matrix elements calculated using PNOs.

Memory handling:
----------------
Maximum memory for working arrays          ...    512 MB
Data storage in matrix containers          ... UNCOMPRESSED
Data type for integral storage             ... DOUBLE
In-Core Storage of quantities:
   Amplitudes+Sigma Vector      ... NO
   J+K operators                ... NO
   DIIS vectors                 ... NO
   3-external integrals         ... NO
   4-external integrals         ... NO

Localization treatment:
-----------------------
Localization option                        ...    2
Localization threshhold                    ... -1.0e+00
Using relative localization threshhold     ... 1.0e-08
Neglect threshold for strong pairs         ... 1.000e-05 Eh
Prescreening threshold for very weak pairs ... 1.000e-07 Eh
Using randomized seed for localization     ... on

Initializing the integral package          ... done
Localizing the valence orbitals
Localizing the valence orbitals
Localization sum:   154.822779468 
------------------------------------------------------------------------------
                           ORCA ORBITAL LOCALIZATION
------------------------------------------------------------------------------

Input orbitals are from                  ... AR3LD_3.2_3.6_2.8.proc0.gbw
Output orbitals are to                   ... AR3LD_3.2_3.6_2.8.proc0.loc
Max. number of iterations                ... 128
Localizations seeded randomly            ... on
Convergence tolerance                    ... 2.000e-07
Using relative localization threshhold   ... 1.000e-08
Threshold for strong local MOs           ... 9.500e-01
Threshold for bond MOs                   ... 8.500e-01
Operator                                 ... 0
Orbital range for localization           ... 15 to 26
Localization criterion                   ... FOSTER-BOYS
Doing the dipole integrals     ... o.k.
Entering Jacobi type localization:
Using Cholesky decomposition as initial guess.
Initial value of the localization sum :   147.869540
ITERATION   0 : L=  154.7704227608 DL=  6.90e+00 (MAX-T)=  45.000 
ITERATION   1 : L=  154.7852790746 DL=  1.49e-02 (MAX-T)=   3.216 
ITERATION   2 : L=  154.7873465473 DL=  2.07e-03 (MAX-T)=   0.913 
ITERATION   3 : L=  154.7890170988 DL=  1.67e-03 (MAX-T)=   0.781 
ITERATION   4 : L=  154.7912320655 DL=  2.21e-03 (MAX-T)=   0.905 
ITERATION   5 : L=  154.7925764253 DL=  1.34e-03 (MAX-T)=   0.613 
ITERATION   6 : L=  154.7943087602 DL=  1.73e-03 (MAX-T)=   0.888 
ITERATION   7 : L=  154.7957139560 DL=  1.41e-03 (MAX-T)=   0.706 
ITERATION   8 : L=  154.7967840997 DL=  1.07e-03 (MAX-T)=   0.751 
ITERATION   9 : L=  154.7980875213 DL=  1.30e-03 (MAX-T)=   0.646 
ITERATION  10 : L=  154.7992553930 DL=  1.17e-03 (MAX-T)=   0.787 
ITERATION  11 : L=  154.8004275335 DL=  1.17e-03 (MAX-T)=   0.811 
ITERATION  12 : L=  154.8015356683 DL=  1.11e-03 (MAX-T)=   0.698 
ITERATION  13 : L=  154.8025902760 DL=  1.05e-03 (MAX-T)=   0.854 
ITERATION  14 : L=  154.8038651901 DL=  1.27e-03 (MAX-T)=   0.825 
ITERATION  15 : L=  154.8053241309 DL=  1.46e-03 (MAX-T)=   0.892 
ITERATION  16 : L=  154.8065106907 DL=  1.19e-03 (MAX-T)=   0.908 
ITERATION  17 : L=  154.8076674619 DL=  1.16e-03 (MAX-T)=   0.817 
ITERATION  18 : L=  154.8086984276 DL=  1.03e-03 (MAX-T)=   0.977 
ITERATION  19 : L=  154.8101896195 DL=  1.49e-03 (MAX-T)=   1.063 
ITERATION  20 : L=  154.8115771116 DL=  1.39e-03 (MAX-T)=   0.899 
ITERATION  21 : L=  154.8130040182 DL=  1.43e-03 (MAX-T)=   0.953 
ITERATION  22 : L=  154.8146014748 DL=  1.60e-03 (MAX-T)=   1.126 
ITERATION  23 : L=  154.8158361732 DL=  1.23e-03 (MAX-T)=   0.971 
ITERATION  24 : L=  154.8170310002 DL=  1.19e-03 (MAX-T)=   0.894 
ITERATION  25 : L=  154.8175605344 DL=  5.30e-04 (MAX-T)=   0.818 
ITERATION  26 : L=  154.8186911213 DL=  1.13e-03 (MAX-T)=   0.787 
ITERATION  27 : L=  154.8191789861 DL=  4.88e-04 (MAX-T)=   0.752 
ITERATION  28 : L=  154.8198854482 DL=  7.06e-04 (MAX-T)=   0.726 
ITERATION  29 : L=  154.8205680070 DL=  6.83e-04 (MAX-T)=   0.603 
ITERATION  30 : L=  154.8209515465 DL=  3.84e-04 (MAX-T)=   0.538 
ITERATION  31 : L=  154.8213932021 DL=  4.42e-04 (MAX-T)=   0.514 
ITERATION  32 : L=  154.8216713854 DL=  2.78e-04 (MAX-T)=   0.424 
ITERATION  33 : L=  154.8218891664 DL=  2.18e-04 (MAX-T)=   0.399 
ITERATION  34 : L=  154.8220291161 DL=  1.40e-04 (MAX-T)=   0.286 
ITERATION  35 : L=  154.8222037279 DL=  1.75e-04 (MAX-T)=   0.321 
ITERATION  36 : L=  154.8223087952 DL=  1.05e-04 (MAX-T)=   0.293 
ITERATION  37 : L=  154.8224119846 DL=  1.03e-04 (MAX-T)=   0.265 
ITERATION  38 : L=  154.8224709126 DL=  5.89e-05 (MAX-T)=   0.203 
ITERATION  39 : L=  154.8225351453 DL=  6.42e-05 (MAX-T)=   0.188 
ITERATION  40 : L=  154.8225823059 DL=  4.72e-05 (MAX-T)=   0.154 
ITERATION  41 : L=  154.8226287849 DL=  4.65e-05 (MAX-T)=   0.183 
ITERATION  42 : L=  154.8226551763 DL=  2.64e-05 (MAX-T)=   0.141 
ITERATION  43 : L=  154.8226797614 DL=  2.46e-05 (MAX-T)=   0.112 
ITERATION  44 : L=  154.8226980879 DL=  1.83e-05 (MAX-T)=   0.105 
ITERATION  45 : L=  154.8227119713 DL=  1.39e-05 (MAX-T)=   0.085 
ITERATION  46 : L=  154.8227262956 DL=  1.43e-05 (MAX-T)=   0.076 
ITERATION  47 : L=  154.8227362799 DL=  9.98e-06 (MAX-T)=   0.070 
ITERATION  48 : L=  154.8227438319 DL=  7.55e-06 (MAX-T)=   0.057 
ITERATION  49 : L=  154.8227503378 DL=  6.51e-06 (MAX-T)=   0.052 
ITERATION  50 : L=  154.8227557161 DL=  5.38e-06 (MAX-T)=   0.057 
ITERATION  51 : L=  154.8227603909 DL=  4.67e-06 (MAX-T)=   0.053 
ITERATION  52 : L=  154.8227638415 DL=  3.45e-06 (MAX-T)=   0.046 
ITERATION  53 : L=  154.8227676069 DL=  3.77e-06 (MAX-T)=   0.040 
ITERATION  54 : L=  154.8227704363 DL=  2.83e-06 (MAX-T)=   0.033 
ITERATION  55 : L=  154.8227726439 DL=  2.21e-06 (MAX-T)=   0.026 
ITERATION  56 : L=  154.8227747594 DL=  2.12e-06 (MAX-T)=   0.027 
ITERATION  57 : L=  154.8227765035 DL=  1.74e-06 (MAX-T)=   0.024 
ITERATION  58 : L=  154.8227780943 DL=  1.59e-06 (MAX-T)=   0.021 
ITERATION  59 : L=  154.8227794682 DL=  1.37e-06 (MAX-T)=   0.020 
LOCALIZATION SUM CONVERGED


--------------------------------------------------------------------------------
                    LOCALIZED MOLECULAR ORBITAL COMPOSITIONS
--------------------------------------------------------------------------------

The Mulliken populations for each LMO on each atom are computed
The LMO`s will be ordered according to atom index and type
  (A) Strongly localized MO`s have populations of >=0.950 on one atom
  (B) Two center bond orbitals have populations of >=0.850 on two atoms
  (C) Other MO`s are considered to be `delocalized`

FOUND  -  12 strongly local MO`s
       -   0 two center bond MO`s
       -   0 significantly delocalized MO`s

Rather strongly localized orbitals:
MO  26:   2Ar -   1.000429
MO  25:   2Ar -   1.000379
MO  24:   2Ar -   1.000217
MO  23:   2Ar -   1.000920
MO  22:   1Ar -   1.003342
MO  21:   1Ar -   1.003337
MO  20:   1Ar -   1.001716
MO  19:   1Ar -   1.001703
MO  18:   0Ar -   1.002292
MO  17:   0Ar -   1.001886
MO  16:   0Ar -   1.002259
MO  15:   0Ar -   1.001992
Localized MO's were stored in: AR3LD_3.2_3.6_2.8.proc0.loc

Localizing the core orbitals
Localization sum:   185.199613256 
------------------------------------------------------------------------------
                           ORCA ORBITAL LOCALIZATION
------------------------------------------------------------------------------

Input orbitals are from                  ... AR3LD_3.2_3.6_2.8.proc0.loc
Output orbitals are to                   ... AR3LD_3.2_3.6_2.8.proc0.loc
Max. number of iterations                ... 128
Localizations seeded randomly            ... on
Convergence tolerance                    ... 2.000e-07
Using relative localization threshhold   ... 1.000e-08
Threshold for strong local MOs           ... 9.500e-01
Threshold for bond MOs                   ... 8.500e-01
Operator                                 ... 0
Orbital range for localization           ... 0 to 14
Localization criterion                   ... FOSTER-BOYS
Doing the dipole integrals     ... o.k.
Entering Jacobi type localization:
Using Cholesky decomposition as initial guess.
Initial value of the localization sum :   184.743129
ITERATION   0 : L=  185.1990936521 DL=  4.56e-01 (MAX-T)=  45.000 
ITERATION   1 : L=  185.1996118845 DL=  5.18e-04 (MAX-T)=   2.323 
ITERATION   2 : L=  185.1996132556 DL=  1.37e-06 (MAX-T)=   0.212 
LOCALIZATION SUM CONVERGED


--------------------------------------------------------------------------------
                    LOCALIZED MOLECULAR ORBITAL COMPOSITIONS
--------------------------------------------------------------------------------

The Mulliken populations for each LMO on each atom are computed
The LMO`s will be ordered according to atom index and type
  (A) Strongly localized MO`s have populations of >=0.950 on one atom
  (B) Two center bond orbitals have populations of >=0.850 on two atoms
  (C) Other MO`s are considered to be `delocalized`

FOUND  -  15 strongly local MO`s
       -   0 two center bond MO`s
       -   0 significantly delocalized MO`s

Rather strongly localized orbitals:
MO  14:   2Ar -   1.000012
MO  13:   2Ar -   1.000022
MO  12:   2Ar -   1.000025
MO  11:   2Ar -   1.000000
MO  10:   2Ar -   1.000032
MO   9:   1Ar -   1.000028
MO   8:   1Ar -   1.000035
MO   7:   1Ar -   1.000062
MO   6:   1Ar -   1.000001
MO   5:   1Ar -   1.000064
MO   4:   0Ar -   1.000018
MO   3:   0Ar -   1.000036
MO   2:   0Ar -   1.000031
MO   1:   0Ar -   1.000000
MO   0:   0Ar -   1.000061
Localized MO's were stored in: AR3LD_3.2_3.6_2.8.proc0.loc

Warning: reference  - re-canonicalizations have been set to INT 1 VIRT 1
Warning: internal orbitals are localized - no re-canonicalization of internal orbitals
Warning: UsePNO is turned on - no re-canonicalization of internal and virtual orbitals
Fock densities were made 
Making Fock matrix and reference energy:

--------------------------
CLOSED-SHELL FOCK OPERATOR
--------------------------

Time needed for Fock operator              ...            1.220 sec
Reference energy                           ...  -1580.386361686

--------------
DLPNO SETTINGS (2015 fully linear scaling implementation)
--------------

TCutMKN:           1.000e-03
TCutPAO:           1.000e-03
TCutPNO:           3.330e-07
TCutPNOSingles:    9.990e-09
TCutEN:            9.700e-01
TCutPAOExt:        1.000e-01
TCutPairs:         1.000e-05
TCutPre:           1.000e-07
TCutOSV:           1.000e-06
TCutDOij:          1.000e-05
TCutDO:            1.000e-02
TCutC:             1.000e-04
TCutCPAO:          1.000e-03
TCutCMO:           1.000e-03
TScaleDOMP2PreScr: 2.000e+00
TScaleMKNMP2PreScr:1.000e+01
TScalePNOMP2PreScr:1.000e+00
PAO overlap thresh 1.000e-08
Using PNOs for Singles Fock computation
Use new domains
Use fully linear algorithm

--------------------------
Mulliken population of the LMOs            ... ok
Performing proximity check                 ... No problems found
Calculating differential overlap integrals ... ok

------------------------
PRESCREENING OF HF PAIRS
------------------------

   .... Finished loop over pairs

                  ============================================
                    30 of   78 PAIRS WERE SKIPPED as HF PAIRS
                  ============================================

Total time spent in skipping HF pairs                 ...     0.000 sec
--------------------------
ELECTRON PAIR PRESCREENING
--------------------------

Dipole-based pair screening          .... used

   TCutDOij = 1.000000e-05
   TCutPre  = 1.000000e-07
   .... Finished loop over pairs
Total time spent in the prescreening                  ...     0.000 sec
sum of pair energies estimated for screened out pairs ...       0.000000000000 Eh
Thresholds for map construction and integral transformation for crude MP2:
   TCutMKN                    ...     1.0e-02
   TCutDO                     ...     2.0e-02
   TCutPairs                  ...     1.0e-05
   TCutPNO_CrudeMP2           ...     3.3e-07
   TCutPNOSingles_CrudeMP2    ...     1.0e-08
--------------------------------
LOCAL RI TRANSFORMATION (IAVPAO)
--------------------------------

Orbital window:      15 to 26
Number of PAOs:      81
Basis functions:     81 (33 shells)
Aux. functions:     276 (84 shells)
Use SHARK:           on
Have SHARK:         yes

Processing maps (0.0 sec)
Average map sizes:
   Aux shells -> MOs              12.0
   Aux shells -> PAOs             81.0
   MOs        -> AO shells        33.0
   PAOs       -> AO shells        33.0

Calculating integrals (0.1 sec, 2.050 MB)
Sorting integrals (0.0 sec, 2.047 MB)
Total time for the integral transformation: 0.1 sec
--------------------------------
INITIAL GUESS AND PNO GENERATION
--------------------------------

Populations of internal orbitals onto Fragments:
  15:      1.002    0.002    0.000  assigned to fragment   1
  16:      1.002    0.002    0.000  assigned to fragment   1
  17:      1.002    0.002    0.000  assigned to fragment   1
  18:      1.002    0.002    0.000  assigned to fragment   1
  19:      0.002    1.002    0.000  assigned to fragment   2
  20:      0.001    1.002    0.001  assigned to fragment   2
  21:      0.003    1.003    0.001  assigned to fragment   2
  22:      0.003    1.003    0.001  assigned to fragment   2
  23:      0.000    0.001    1.001  assigned to fragment   3
  24:      0.000    0.000    1.000  assigned to fragment   3
  25:      0.000    0.000    1.000  assigned to fragment   3
  26:      0.000    0.000    1.000  assigned to fragment   3

Summary assignment:
   4 orbitals assigned to fragment   1
   4 orbitals assigned to fragment   2
   4 orbitals assigned to fragment   3

PNO truncation parameters                   .... 
    PAOOverlapThresh   =        1.000e-08

Pair selection                          .... 
  modified with fragment specific keywords
  Pairs will be selected according to these
  intra(inter)fragment cutoffs
  1 <-> 1
    Intrafragment pairs 1 <-> 1 neglected for CCSD
  1 <-> 2
    TCutPairs          =        1.000e-05
    TCutPNO            =        3.330e-07
    TCutMKN            =        1.000e-02
    TCutDO             =        2.000e-02
    TCutPNOSingles     =        9.990e-09
    TCutMP2Pairs       =        1.000e-06
  1 <-> 3
    TCutPairs          =        1.000e-05
    TCutPNO            =        3.330e-07
    TCutMKN            =        1.000e-02
    TCutDO             =        2.000e-02
    TCutPNOSingles     =        9.990e-09
    TCutMP2Pairs       =        1.000e-06
  2 <-> 2
    Intrafragment pairs 2 <-> 2 neglected for CCSD
  2 <-> 3
    TCutPairs          =        1.000e-05
    TCutPNO            =        3.330e-07
    TCutMKN            =        1.000e-02
    TCutDO             =        2.000e-02
    TCutPNOSingles     =        9.990e-09
    TCutMP2Pairs       =        1.000e-06
  3 <-> 3
    Intrafragment pairs 3 <-> 3 neglected for CCSD

Type of local MP2 treatment                 .... semi-local MP2
Strategy for PNO selection                  .... occupation number selection
Pair density normalization                  .... MP2 norm
Spin component scaling                      .... not used

   .... Finished loop over pairs
Making pair pair interaction lists          ... done

                       ===========================
                         48 OF   60 PAIRS ARE KEPT CCSD PAIRS
                          0 OF   60 PAIRS ARE KEPT MP2 PAIRS
                         12 OF   60 PAIRS ARE SKIPPED
                       ===========================

Total time spent in the initial guess                 ...     0.194 sec
SL-MP2 correlation energy (all non-screened pairs)    ...      -0.005856797169 Eh

Initial PNO correlation energy                        ...      -0.005719400563 Eh
sum of pair energies prescreened and skipped MP2 pairs...       0.000000000000 Eh
sum of pair energies of crude MP2 skipped pairs only  ...       0.000000000000 Eh
sum of MP2 pair energies for pairs that were not kept ...       0.000000000000 Eh
sum of PNO error estimates for the kept pairs         ...      -0.000137396607 Eh
                                                          --------------------
sum of all corrections                                         -0.000137396607
Initial total correlation energy                               -0.005856797169
Thresholds for map construction and integral transformation for fine MP2 and CCSD(T) calculation:
   TCutMKN   ...     1.0e-03
   TCutDO    ...     1.0e-02
   TCutPairs ...     1.0e-05
   TCutCMO   ...     1.0e-03
   TCutCPAO  ...     1.0e-03

--------------------------------
LOCAL RI TRANSFORMATION (IAVPAO)
--------------------------------

Orbital window:      15 to 26
Number of PAOs:      81
Basis functions:     81 (33 shells)
Aux. functions:     276 (84 shells)
Use SHARK:           on
Have SHARK:         yes

Processing maps (0.0 sec)
Average map sizes:
   Aux shells -> MOs              12.0
   Aux shells -> PAOs             81.0
   MOs        -> AO shells        33.0
   PAOs       -> AO shells        33.0

Calculating integrals (0.1 sec, 2.050 MB)
Sorting integrals (0.0 sec, 2.047 MB)
Total time for the integral transformation: 0.1 sec
--------------------------------
INITIAL GUESS AND PNO GENERATION
--------------------------------

Populations of internal orbitals onto Fragments:
  15:      1.002    0.002    0.000  assigned to fragment   1
  16:      1.002    0.002    0.000  assigned to fragment   1
  17:      1.002    0.002    0.000  assigned to fragment   1
  18:      1.002    0.002    0.000  assigned to fragment   1
  19:      0.002    1.002    0.000  assigned to fragment   2
  20:      0.001    1.002    0.001  assigned to fragment   2
  21:      0.003    1.003    0.001  assigned to fragment   2
  22:      0.003    1.003    0.001  assigned to fragment   2
  23:      0.000    0.001    1.001  assigned to fragment   3
  24:      0.000    0.000    1.000  assigned to fragment   3
  25:      0.000    0.000    1.000  assigned to fragment   3
  26:      0.000    0.000    1.000  assigned to fragment   3

Summary assignment:
   4 orbitals assigned to fragment   1
   4 orbitals assigned to fragment   2
   4 orbitals assigned to fragment   3

PNO truncation parameters                   .... 
    PAOOverlapThresh   =        1.000e-08

Pair selection                          .... 
  modified with fragment specific keywords
  Pairs will be selected according to these
  intra(inter)fragment cutoffs
  1 <-> 1
    Intrafragment pairs 1 <-> 1 neglected for CCSD
  1 <-> 2
    TCutPairs          =        1.000e-05
    TCutPNO            =        3.330e-07
    TCutMKN            =        1.000e-03
    TCutDO             =        1.000e-02
    TCutPNOSingles     =        9.990e-09
    TCutMP2Pairs       =        1.000e-06
  1 <-> 3
    TCutPairs          =        1.000e-05
    TCutPNO            =        3.330e-07
    TCutMKN            =        1.000e-03
    TCutDO             =        1.000e-02
    TCutPNOSingles     =        9.990e-09
    TCutMP2Pairs       =        1.000e-06
  2 <-> 2
    Intrafragment pairs 2 <-> 2 neglected for CCSD
  2 <-> 3
    TCutPairs          =        1.000e-05
    TCutPNO            =        3.330e-07
    TCutMKN            =        1.000e-03
    TCutDO             =        1.000e-02
    TCutPNOSingles     =        9.990e-09
    TCutMP2Pairs       =        1.000e-06
  3 <-> 3
    Intrafragment pairs 3 <-> 3 neglected for CCSD

Type of local MP2 treatment                 .... semi-local MP2
Strategy for PNO selection                  .... occupation number selection
Pair density normalization                  .... MP2 norm
Spin component scaling                      .... not used

   .... Finished loop over pairs

 PNO Occupation Number Statistics: 
  | Av. % of trace(Dij) retained        ...  98.375221077868
  | sigma^2 in % of trace(Dij) retained ...   4.31e-01
  | Av. % of trace(Di) retained         ...  99.999835345699
  | sigma^2 in % of trace(Di) retained  ...   6.22e-09
 Distributions of % trace(Dij) recovered:
  |   [90.0, 99.0) ...    42 ( 87.5 % of all pairs)
  |   [99.0, 99.9) ...     6 ( 12.5 % of all pairs)
 Distributions of % trace(Di) recovered :
  |       >= 99.9  ...    12 (100.0 % of all I-pairs )

Making pair pair interaction lists          ... done

                       ===========================
                         48 OF   60 PAIRS ARE KEPT
                       ===========================

Total time spent in the initial guess                 ...     0.289 sec
SL-MP2 correlation energy (all non-screened pairs)    ...      -0.005856586976 Eh

Initial PNO correlation energy                        ...      -0.005719155430 Eh
sum of pair energies estimated for screened out pairs ...       0.000000000000 Eh
sum of MP2 pair energies for pairs that were not kept ...       0.000000000000 Eh
sum of PNO error estimates for the kept pairs         ...      -0.000137431546 Eh
                                                          --------------------
sum of all corrections                                         -0.000137431546
Initial total correlation energy                               -0.005856586976
Thresholds for map construction and integral transformation for fine MP2 and CCSD(T) calculation:
   TCutMKN   ...     1.0e-03
   TCutDO    ...     1.0e-02
   TCutPairs ...     1.0e-05
   TCutCMO   ...     1.0e-03
   TCutCPAO  ...     1.0e-03

Time for aux screen maps:            0.000
Time for maps after fine MP2:            0.001
-----------------------------
LOCAL RI TRANSFORMATION (IJV)
-----------------------------

Orbital window:      15 to 26
Basis functions:     81 (33 shells)
Aux. functions:     276 (84 shells)
Use SHARK:           on

Processing maps (0.0 sec)
Average map sizes:
   Aux shells -> MOs(i)           12.0
   Aux shells -> MOs(j)           12.0
   MOs        -> AO shells        33.0

Calculating integrals NOTE: Switching SHARK to General Contraction for MDCI
      If that is not desired please turn off the PGCFlag in the input (%shark PGCFlag 0 end)
(0.8 sec, 0.306 MB)
Sorting integrals (0.0 sec, 0.303 MB)
Total time for the integral transformation: 0.8 sec
--------------------------------
LOCAL RI TRANSFORMATION (VABPAO)
--------------------------------

Number of PAOs:      81
Basis functions:     81 (33 shells)
Aux. functions:     276 (84 shells)
Use SHARK:           on

Processing maps (0.0 sec)
Average map sizes:
   Aux shells -> PAOs             81.0
   PAOs       -> AO shells        33.0

Calculating integrals NOTE: Switching SHARK to General Contraction for MDCI
      If that is not desired please turn off the PGCFlag in the input (%shark PGCFlag 0 end)
(0.9 sec, 13.819 MB)
Finished


-------------------------------------
Pair Pair Term precalculation with     
RI-(ij|mn) and (im|jn) transformation  
ON THE FLY                             
-------------------------------------

   IBatch   1 (of   1)              ... done (    1.031 sec)
Total EXT                           ...           1.031 sec

IAVPA Available = YES
VABPAO Available= YES
IJV Available   = YES
IJK Available   = NO
PNO3i Available = YES
PNO3j Available = YES
PNO4 Available  = YES
---------------------
RI-PNO TRANSFORMATION
---------------------

Total Number of PNOs                   ...   422
Average number of PNOs per pair        ...     8
Maximal number of PNOs per pair        ...    13
   #pairs with  1 -  5 PNOs   :    0
   #pairs with  6 - 10 PNOs   :   34
   #pairs with 11 - 15 PNOs   :   14
   #pairs with 16 - 20 PNOs   :    0
   #pairs with 21 - 25 PNOs   :    0
   #pairs with 26 - 30 PNOs   :    0
   #pairs with 31 - 35 PNOs   :    0
   #pairs with 36 - 40 PNOs   :    0
   #pairs with 41 - 45 PNOs   :    0
   #pairs with 46 - 50 PNOs   :    0

Generation of (ij|ab)[P] integrals            ... on
Generation of (ia|bc)[P],(ja|bc)[P] integrals ... on
Storage of 3 and 4 external integrals         ... on
Generation of ALL (ka|bc)[P] integrals        ... on
Keep RI integrals in memory                   ... off

Ibatch:  1 (of  1)
Starting 2-4 index PNO integral generation ... done

Timings:
Total PNO integral transformation time     ...          0.610 sec
Size of the 3-external file                ...         0 MB
Size of the 4-external file                ...         0 MB
Size of the IKJL file                      ...         0 MB
Size of the all 3-external file            ...         1 MB
Size of the 1-external file                ...         0 MB

Making pair/pair overlap matrices          ... done (    0.095 sec)
Size of the pair overlap file              ... 1 MB
Redoing the guess amplitudes               ... done (    0.000 sec)

-------------------------
FINAL STARTUP INFORMATION
-------------------------

E(0)                                       ...  -1580.386361686
E(SL-MP2)                                  ...     -0.005856587
E(SL-MP2) including corrections            ...     -0.005856587
Initial E(tot)                             ...  -1580.392218273
<T|T>                                      ...      0.002113340
Number of pairs included                   ... 48
Total number of pairs                      ... 78

------------------------------------------------
                  RHF COUPLED CLUSTER ITERATIONS
------------------------------------------------

Number of PNO amplitudes to be optimized   ...         3948
Number of non-PNO amplitudes               ...       139968
Untruncated number of regular amplitudes   ...       227448

Iter       E(tot)           E(Corr)          Delta-E          Residual     Time
  0  -1580.392217771     -0.005718653      0.000137934      0.000964729    0.10
                           *** Turning on DIIS ***
  1  -1580.391816999     -0.005317882      0.000400772      0.000199203    0.10
  2  -1580.391863541     -0.005364423     -0.000046542      0.000045570    0.10
  3  -1580.391865918     -0.005366801     -0.000002377      0.000017510    0.10
  4  -1580.391866807     -0.005367690     -0.000000889      0.000002863    0.12
  5  -1580.391866936     -0.005367818     -0.000000129      0.000000720    0.12
               --- The Coupled-Cluster iterations have converged ---

----------------------
COUPLED CLUSTER ENERGY
----------------------

E(0)                                       ...  -1580.386361686
E(CORR)(strong-pairs)                      ...     -0.005367818
E(CORR)(weak-pairs)                        ...     -0.000137432
E(CORR)(corrected)                         ...     -0.005505250
E(TOT)                                     ...  -1580.391866936
Singles Norm <S|S>**1/2                    ...      0.002836687  
T1 diagnostic                              ...      0.000579036  

------------------
LARGEST AMPLITUDES
------------------
  20-> 29  17-> 29       0.001869
  22-> 28  16-> 28       0.001822
  21-> 28  18-> 28       0.001822
  19-> 27  15-> 27       0.001772
  20-> 32  17-> 29       0.001540
  23-> 27  20-> 27       0.001515
  19-> 30  15-> 27       0.001509
  20-> 29  17-> 32       0.001489
  19-> 27  15-> 30       0.001486
  19-> 31  16-> 27       0.001431
  19-> 31  18-> 27       0.001426
  22-> 32  16-> 28       0.001406
  21-> 32  18-> 28       0.001384
  23-> 27  22-> 27       0.001382
  23-> 27  21-> 27       0.001379
  20-> 31  15-> 30       0.001349


 ===========================================================
         LOCAL ENERGY DECOMPOSITION FOR DLPNO-CC METHODS
 ===========================================================

Maximum Iterations for the Localization .. 600
Tolerance for the Localization          ..  1.00e-06
Number of fragments = 3
Fragment  1:  0
Fragment  2:  1
Fragment  3:  2

Populations of internal orbitals onto Fragments:
   0:      1.000    0.000    0.000  assigned to fragment   1
   1:      1.000    0.000    0.000  assigned to fragment   1
   2:      1.000    0.000    0.000  assigned to fragment   1
   3:      1.000    0.000    0.000  assigned to fragment   1
   4:      1.000    0.000    0.000  assigned to fragment   1
   5:      0.000    1.000    0.000  assigned to fragment   2
   6:      0.000    1.000    0.000  assigned to fragment   2
   7:      0.000    1.000    0.000  assigned to fragment   2
   8:      0.000    1.000    0.000  assigned to fragment   2
   9:      0.000    1.000    0.000  assigned to fragment   2
  10:      0.000    0.000    1.000  assigned to fragment   3
  11:      0.000    0.000    1.000  assigned to fragment   3
  12:      0.000    0.000    1.000  assigned to fragment   3
  13:      0.000    0.000    1.000  assigned to fragment   3
  14:      0.000    0.000    1.000  assigned to fragment   3
  15:      1.002    0.002    0.000  assigned to fragment   1
  16:      1.002    0.002    0.000  assigned to fragment   1
  17:      1.002    0.002    0.000  assigned to fragment   1
  18:      1.002    0.002    0.000  assigned to fragment   1
  19:      0.002    1.002    0.000  assigned to fragment   2
  20:      0.001    1.002    0.001  assigned to fragment   2
  21:      0.003    1.003    0.001  assigned to fragment   2
  22:      0.003    1.003    0.001  assigned to fragment   2
  23:      0.000    0.001    1.001  assigned to fragment   3
  24:      0.000    0.000    1.000  assigned to fragment   3
  25:      0.000    0.000    1.000  assigned to fragment   3
  26:      0.000    0.000    1.000  assigned to fragment   3

Summary assignment:
   9 orbitals assigned to fragment   1
   9 orbitals assigned to fragment   2
   9 orbitals assigned to fragment   3


--------------------------------
CORRELATION ENERGY DECOMPOSITION
--------------------------------


--------------------------------------------------
INTER- vs INTRA-FRAGMENT CORRELATION ENERGIES (Eh)
--------------------------------------------------

                                   Fragment   1            Fragment   2            Fragment   3            
                         ----------------------  ----------------------  ----------------------  
Intra strong pairs               0.000000000000         0.000000000000         0.000000000000  sum=        0.000000000000
Intra weak pairs                 0.000000000000         0.000000000000         0.000000000000  sum=        0.000000000000
Singles contribution            -0.000000000312        -0.000000000400        -0.000000000071  sum=       -0.000000000784
                         ----------------------  ----------------------  ----------------------  
                                -0.000000000312        -0.000000000400        -0.000000000071  sum=       -0.000000000784


Interaction correlation for Fragments   2 and   1:
--------------------------------------------------
Inter strong pairs               -0.003109664640 (   -1.951 kcal/mol)
Inter weak pairs                 -0.000067943407 (   -0.043 kcal/mol)
                          ----------------------
Total interaction                -0.003177608047 (   -1.994 kcal/mol)

Interaction correlation for Fragments   3 and   1:
--------------------------------------------------
Inter strong pairs               -0.000737955965 (   -0.463 kcal/mol)
Inter weak pairs                 -0.000024932229 (   -0.016 kcal/mol)
                          ----------------------
Total interaction                -0.000762888194 (   -0.479 kcal/mol)
Interaction correlation for Fragments   3 and   2:
--------------------------------------------------
Inter strong pairs               -0.001520196806 (   -0.954 kcal/mol)
Inter weak pairs                 -0.000044555911 (   -0.028 kcal/mol)
                          ----------------------
Total interaction                -0.001564752717 (   -0.982 kcal/mol)



Sum of INTRA-fragment correlation energies  =        -0.000000000784
Sum of INTER-fragment correlation energies  =        -0.005505248958
                                              ---------------------
Total correlation energy                    =        -0.005505249742

---------------------------------------------
DECOMPOSITION OF CCSD STRONG PAIRS INTO      
    DOUBLE EXCITATION TYPES (Eh)             
---------------------------------------------

Foster-Boys localization is used for localizing PNOs

Intra fragment contributions: 
INTRA Fragment 1                        0.000000000 
INTRA Fragment 2                        0.000000000 
INTRA Fragment 3                        0.000000000 

Charge transfer contributions: 
Charge Transfer 1 to 2                 -0.000331662 
Charge Transfer 1 to 3                 -0.000024324 
Charge Transfer 2 to 1                 -0.000299935 
Charge Transfer 2 to 3                 -0.000084806 
Charge Transfer 3 to 1                 -0.000018295 
Charge Transfer 3 to 2                 -0.000082021 

Dispersion contributions: 
Dispersion  2,1                        -0.002478067 
Dispersion  3,1                        -0.000695337 
Dispersion  3,2                        -0.001353370 

Singles contributions:                   
Singles energy                         -0.000000001 
 
Delocalized contributions: 
Delocalized correlation                 0.000000000 

#Time for LED analysis ..       0.0 (sec)



--------------------------------------------------------------------------------
                                    TIMINGS
--------------------------------------------------------------------------------


Total execution time                   ...        7.031 sec

Localization of occupied MO's          ...        0.128 sec (  1.8%)
Fock Matrix Formation                  ...        1.220 sec ( 17.4%)
Global overlap, Fock, MKN matrices     ...        0.171 sec (  2.4%)
Differential overlap integrals         ...        0.263 sec (  3.7%)
Organizing maps                        ...        0.003 sec (  0.0%)
RI 3-index integral generations        ...        1.980 sec ( 28.2%)
RI-PNO integral transformation         ...        1.742 sec ( 24.8%)
Initial Guess                          ...        0.498 sec (  7.1%)
DIIS Solver                            ...        0.006 sec (  0.1%)
State Vector Update                    ...        0.000 sec (  0.0%)
Sigma-vector construction              ...        0.644 sec (  9.2%)
  <D|H|D>(0-ext)                       ...        0.071 sec ( 11.1% of sigma)
  <D|H|D>(2-ext)                       ...        0.140 sec ( 21.7% of sigma)
  <D|H|D>(4-ext)                       ...        0.009 sec (  1.4% of sigma)
  <D|H|D>(4-ext-corr)                  ...        0.031 sec (  4.8% of sigma)
  CCSD doubles correction              ...        0.013 sec (  2.1% of sigma)
  <S|H|S>                              ...        0.039 sec (  6.1% of sigma)
  <S|H|D>(1-ext)                       ...        0.033 sec (  5.1% of sigma)
  <D|H|S>(1-ext)                       ...        0.001 sec (  0.2% of sigma)
  <S|H|D>(3-ext)                       ...        0.005 sec (  0.8% of sigma)
  Fock-dressing                        ...        0.184 sec ( 28.5% of sigma)
  Singles amplitudes                   ...        0.007 sec (  1.1% of sigma)
  (ik|jl)-dressing                     ...        0.043 sec (  6.7% of sigma)
  (ij|ab),(ia|jb)-dressing             ...        0.060 sec (  9.3% of sigma)
Local Energy Decomposition             ...        0.028 sec (  0.4% of ALL)


Maximum memory used throughout the entire MDCI-calculation: 107.3 MB
----------------------------   ----------------
Inter-fragment dispersion       -0.004664205
----------------------------   ----------------


-------------------------   --------------------
FINAL SINGLE POINT ENERGY     -1580.391025891086 
-------------------------   --------------------


------------------------------------------------------------------------------
                              ORCA PROPERTY CALCULATIONS
------------------------------------------------------------------------------

GBWName                                 ... AR3LD_3.2_3.6_2.8.gbw
Number of atoms                         ...      3
Number of basis functions               ...    150
Max core memory                         ...   1024 MB

Electric properties:
Dipole moment                           ... YES
Quadrupole moment                       ...  NO
Static polarizability (Dipole/Dipole)   ...  NO
Static polarizability (Dipole/Quad.)    ...  NO
Static polarizability (Quad./Quad.)     ...  NO
Static polarizability (Velocity)        ...  NO

Atomic electric properties:
Dipole moment                           ...  NO
Quadrupole moment                       ...  NO
Static polarizability                   ...  NO

Choice of electric origin               ... Center of mass
Position of electric origin             ...     2.951572     1.931683     0.000000

General magnetic properties:
Magnetizability                         ...  NO

EPR properties:
g-Tensor (aka g-matrix)                 ...  NO
Zero-Field splitting spin-orbit         ...  NO
Zero-field splitting spin-spin          ...  NO
Hyperfine couplings                     ...  NO (   0 nuclei)
Quadrupole couplings                    ...  NO (   0 nuclei)
Contact density                         ...  NO (   0 nuclei)

NMR properties:
Chemical shifts                         ...  NO (   0 nuclei)
Spin-rotation constants                 ...  NO (   0 nuclei)
Spin-spin couplings                     ...  NO (   0 nuclei,    0 pairs)

Choice of magnetic origin               ... GIAO
Position of magnetic origin             ...     0.000000     0.000000     0.000000

Properties with geometric perturbations:
SCF Hessian                             ...  NO
IR spectrum                             ...  NO
VCD spectrum                            ...  NO
X-ray spectroscopy properties:
SCF XES/XAS/RIXS spectra                ...  NO


-------------
DIPOLE MOMENT
-------------

Method             : SCF
Type of density    : Electron Density
Multiplicity       :   1
Irrep              :   0
Energy             : -1580.3863616859405283 Eh
Relativity type    : 
Basis              : AO
                                X                 Y                 Z
Electronic contribution:      0.000436050       0.001386236       0.000000000
Nuclear contribution   :     -0.000000000       0.000000000       0.000000000
                        -----------------------------------------
Total Dipole Moment    :      0.000436050       0.001386236       0.000000000
                        -----------------------------------------
Magnitude (a.u.)       :      0.001453199
Magnitude (Debye)      :      0.003693739



--------------------
Rotational spectrum 
--------------------
 
Rotational constants in cm-1:             0.114226             0.063435             0.040785 
Rotational constants in MHz :          3424.395926          1901.734808          1222.706173 

Dipole components along the rotational axes: 
x,y,z [a.u.] :    -0.001450     0.000092     0.000000 
x,y,z [Debye]:    -0.003686     0.000234     0.000000 

 

Dipole moment calculation done in   0.0 sec 

Maximum memory used throughout the entire PROP-calculation: 6.8 MB

--------------------------------
SUGGESTED CITATIONS FOR THIS RUN
--------------------------------

Below you find a list of papers that are relevant to this ORCA run
We neither can nor want to force you to cite these papers, but we appreciate if you do
You receive ORCA, which is the product of decades of hard work by many enthusiastic individuals, for free
The only thing we kindly ask in return is that you cite our papers,
We deeply appreciate it, if you show your appreciation for ORCA by not just citing the generic ORCA reference.

Please note that relegating all ORCA citations to the supporting information does *not* help us.
SI sections are not indexed - citations you put there will not count into any citation statistics
But we need these citations in order to attract the funding resources that allow us to do what we are doing

Therefore, if you are a happy ORCA user, please consider citing a few of the papers listed below in the main body of your paper

In addition to the list printed below, the program has created the file AR3LD_3.2_3.6_2.8.bibtex that contains the list in bibtex format
You can import this file easily into all common literature databanks and citation aid programs


List of essential papers. We consider these as the minimum necessary citations

  1. Neese,F.
     Software update: the ORCA program system, version 5.0
     WIRES Comput. Molec. Sci., 2022 12(1)e1606
     doi.org/10.1002/wcms.1606

List of papers to cite with high priority. The work reported in these papers was absolutely
necessary for this run to complete.
Our perspective: the developers of density functionals and basis sets usually get cited in chemistry papers
Good! But without the algorithms to do something with them, the functionals or basis sets would not do anything.
Hence, in our opinion, the algorithm design and method developments papers are equally worthy of getting cited

  1. Neese,F.; Hansen,A.; Liakos,D.G.
     Efficient and accurate approximations to the local coupled cluster singles doubles method using a truncated pair natural orbital basis
     J. Chem. Phys., 2009 131 064103
     doi.org/10.1063/1.3173827
  2. Neese,F.; Wennmohs,F.; Hansen,A.
     Efficient and accurate local approximations to coupled-electron pair approaches: An attempt to revive the pair natural orbital method
     J. Chem. Phys., 2009 130 114108
     doi.org/10.1063/1.3086717
  3. Riplinger,C.; Neese,F.
     An efficient and near linear scaling pair natural orbital based local coupled cluster method
     J. Chem. Phys., 2013 138(3)Art. No. 034106
     doi.org/10.1063/1.4773581
  4. Datta,D.; Kossmann,S.; Neese,F.
     Analytic energy derivatives for the calculation of the first-order molecular properties using the domain-based local pair-natural orbital coupled-cluster theory
     J. Chem. Phys., 2016 145 
     doi.org/10.1063/1.4962369
  5. Riplinger,C.; Pinski,P.; Becker,U.; Valeev,E.F.; Neese,F.
     Sparse maps-A systematic infrastructure for reduced-scaling electronic structure methods. II. Linear scaling domain based pair natural orbital coupled cluster theory
     J. Chem. Phys., 2016 144 
     doi.org/10.1063/1.4939030
  6. Schneider,W.B.; Bistoni,G.; Sparta,M.; Saitow,M.; Riplinger,C.; Auer,A.A.; Neese,F.
     Decomposition of Intermolecular Interaction Energies within the Local Pair Natural Orbital Coupled Cluster Framework
     J. Theo. Comp. Chem., 2016 12 4778-4792
     doi.org/10.1021/acs.jctc.6b00523
  7. Bistoni,G.; Riplinger,C.; Minenkov,Y.; Cavallo,L.; Auer,A.A.; Neese,F.
     Treating Subvalence Correlation Effects in Domain Based Pair Natural Orbital Coupled Cluster Calculations: An Out-of-the-Box Approach
     J. Theo. Comp. Chem., 2017 13 3220-3227
     doi.org/10.1021/acs.jctc.7b00352
  8. Altun,A.; Neese,F.; Bistoni,G.
     HFLD: A Nonempirical London Dispersion-Corrected Hartree-Fock Method for the Quantification and Analysis of Noncovalent Interaction Energies of Large Molecular Systems
     J. Chem. Theory Comput., 2019 15 5894-5907
     doi.org/10.1021/acs.jctc.9b00425
  9. Neese,F.
     The SHARK Integral Generation and Digestion System
     J. Comp. Chem., 2022  1-16
     doi.org/10.1002/jcc.26942
 10. Altun,A.; Neese,F.; Bistoni,G.
     Open-Shell Variant of the London Dispersion-Corrected Hartree–Fock Method (HFLD) for the Quantification and Analysis of Noncovalent Interaction Energies
     J. Chem. Theory Comput., 2022 XX XXXX-XXXX
     doi.org/10.1021/acs.jctc.1c01295

List of suggested additional citations. These are papers that are important in the 'surrounding' of 
of this run, or papers that preceded the highly important papers. If you like your results we are grateful for a citation.

  1. Neese,F.
     The ORCA program system
     WIRES Comput. Molec. Sci., 2012 2(1)73-78
     doi.org/10.1002/wcms.81
  2. Neese,F.
     Software update: the ORCA program system, version 4.0
     WIRES Comput. Molec. Sci., 2018 8(1)1-6
     doi.org/10.1002/wcms.1327
  3. Neese,F.; Wennmohs,F.; Becker,U.; Riplinger,C.
     The ORCA quantum chemistry program package
     J. Chem. Phys., 2020 152 Art. No. L224108
     doi.org/10.1063/5.0004608
  4. Bistoni,G.
     Finding chemical concepts in the Hilbert space: Coupled cluster analyses of noncovalent interactions
     WIRES Comput. Molec. Sci., 2020 10(3)e1442
     doi.org/10.1002/wcms.1442

List of optional additional citations

  1. Neese,F.
     Approximate second-order SCF convergence for spin unrestricted wavefunctions
     Chem. Phys. Lett., 2000 325(1-3)93-98
     doi.org/10.1016/s0009-2614(00)00662-x

Timings for individual modules:

Sum of individual times          ...       16.613 sec (=   0.277 min)
Startup calculation              ...        2.289 sec (=   0.038 min)  13.8 %
SCF iterations                   ...        7.017 sec (=   0.117 min)  42.2 %
Property integrals               ...        0.105 sec (=   0.002 min)   0.6 %
Property calculations            ...        0.125 sec (=   0.002 min)   0.8 %
MDCI module                      ...        7.076 sec (=   0.118 min)  42.6 %
                             ****ORCA TERMINATED NORMALLY****
TOTAL RUN TIME: 0 days 0 hours 0 minutes 16 seconds 696 msec
