
                                 *****************
                                 * O   R   C   A *
                                 *****************

                                            #,                                       
                                            ###                                      
                                            ####                                     
                                            #####                                    
                                            ######                                   
                                           ########,                                 
                                     ,,################,,,,,                         
                               ,,#################################,,                 
                          ,,##########################################,,             
                       ,#########################################, ''#####,          
                    ,#############################################,,   '####,        
                  ,##################################################,,,,####,       
                ,###########''''           ''''###############################       
              ,#####''   ,,,,##########,,,,          '''####'''          '####       
            ,##' ,,,,###########################,,,                        '##       
           ' ,,###''''                  '''############,,,                           
         ,,##''                                '''############,,,,        ,,,,,,###''
      ,#''                                            '''#######################'''  
     '                                                          ''''####''''         
             ,#######,   #######,   ,#######,      ##                                
            ,#'     '#,  ##    ##  ,#'     '#,    #''#        ,####,   ,####,        
            ##       ##  ##   ,#'  ##            #'  '#       #'       #'  '#        
            ##       ##  #######   ##           ,######,      #####,   #    #        
            '#,     ,#'  ##    ##  '#,     ,#' ,#      #,     #,   #   #,  ,#        
             '#######'   ##     ##  '#######'  #'      '#     '####' # '####'        



                #########################################################
                #                        -***-                          #
                #          Department of theory and spectroscopy        #
                #                                                       #
                #                      Frank Neese                      #
                #                                                       #
                #     Directorship, Architecture, Infrastructure        #
                #                    SHARK, DRIVERS                     #
                #        Core code/Algorithms in most modules           #
                #                                                       #
                #        Max Planck Institute fuer Kohlenforschung      #
                #                Kaiser Wilhelm Platz 1                 #
                #                 D-45470 Muelheim/Ruhr                 #
                #                      Germany                          #
                #                                                       #
                #                  All rights reserved                  #
                #                        -***-                          #
                #########################################################


                         Program Version 6.0.0  -   RELEASE  -


 With contributions from (in alphabetic order):
   Daniel Aravena         : Magnetic Suceptibility
   Michael Atanasov       : Ab Initio Ligand Field Theory (pilot matlab implementation)
   Alexander A. Auer      : GIAO ZORA, VPT2 properties, NMR spectrum
   Ute Becker             : All parallelization in ORCA, NUMFREQ, NUMCALC
   Giovanni Bistoni       : ED, misc. LED, open-shell LED, HFLD
   Martin Brehm           : Molecular dynamics
   Dmytro Bykov           : pre 5.0 version of the SCF Hessian
   Marcos Casanova-Páez   : Triplet and SCS-CIS(D). UHF-(DLPNO)-IP/EA/STEOM-CCSD. UHF-CVS-IP/STEOM-CCSD
   Vijay G. Chilkuri      : MRCI spin determinant printing, contributions to CSF-ICE
   Pauline Colinet        : FMM embedding
   Dipayan Datta          : RHF DLPNO-CCSD density
   Achintya Kumar Dutta   : EOM-CC, STEOM-CC
   Nicolas Foglia         : Exact transition moments, OPA infrastructure, MCD improvements
   Dmitry Ganyushin       : Spin-Orbit,Spin-Spin,Magnetic field MRCI
   Miquel Garcia          : C-PCM and meta-GGA Hessian, CCSD/C-PCM, Gaussian charge scheme
   Tiago L. C. Gouveia    : GS-ROHF, GS-ROCIS
   Yang Guo               : DLPNO-NEVPT2, F12-NEVPT2, CIM, IAO-localization
   Andreas Hansen         : Spin unrestricted coupled pair/coupled cluster methods
   Ingolf Harden          : AUTO-CI MPn and infrastructure 
   Benjamin Helmich-Paris : MC-RPA, TRAH-(SCF,CASSCF), AVAS, COSX integrals, SCF dyn. polar.
   Lee Huntington         : MR-EOM, pCC
   Robert Izsak           : Overlap fitted RIJCOSX, COSX-SCS-MP3, EOM
   Riya Kayal             : Wick's Theorem for AUTO-CI, AUTO-CI UHF-CCSDT
   Emily Kempfer          : AUTO-CI, RHF CISDT and CCSDT
   Christian Kollmar      : KDIIS, OOCD, Brueckner-CCSD(T), CCSD density, CASPT2, CASPT2-K, improved NEVPT2
   Axel Koslowski         : Symmetry handling
   Simone Kossmann        : Meta GGA functionals, TD-DFT gradient, OOMP2, (MP2 Hessian; deprecated post 5.0)
   Lucas Lang             : DCDCAS
   Marvin Lechner         : AUTO-CI (C++ implementation), FIC-MRCC
   Spencer Leger          : CASSCF response
   Dagmar Lenk            : GEPOL surface, SMD, ORCA-2-JSON
   Dimitrios Liakos       : Extrapolation schemes; Compound Job, initial MDCI parallelization
   Dimitrios Manganas     : Further ROCIS development; embedding schemes. LFT, Crystal Embedding
   Dimitrios Pantazis     : SARC Basis sets
   Anastasios Papadopoulos: AUTO-CI, single reference methods and gradients
   Taras Petrenko         : pre 6.0 DFT Hessian and TD-DFT gradient, (ASA, deprecated), ECA, 1-Electron XAS/XES, NRVS
   Peter Pinski           : DLPNO-MP2, DLPNO-MP2 Gradient
   Christoph Reimann      : Effective Core Potentials
   Marius Retegan         : Local ZFS, SOC
   Christoph Riplinger    : Optimizer, TS searches, QM/MM, DLPNO-CCSD(T), (RO)-DLPNO pert. Triples
   Michael Roemelt        : Original ROCIS implementation
   Masaaki Saitow         : Open-shell DLPNO-CCSD energy and density
   Barbara Sandhoefer     : DKH picture change effects
   Kantharuban Sivalingam : CASSCF convergence/infrastructure, NEVPT2 and variants, FIC-MRCI
   Bernardo de Souza      : ESD, SOC TD-DFT
   Georgi Stoychev        : AutoAux, RI-MP2 NMR, DLPNO-MP2 response, X2C
   Van Anh Tran           : RI-MP2 g-tensors
   Willem Van den Heuvel  : Paramagnetic NMR
   Zikuan Wang            : NOTCH, Electric field optimization 
   Frank Wennmohs         : Technical directorship and infrastructure
   Hang Xu                : AUTO-CI-Response properties 


 We gratefully acknowledge several colleagues who have allowed us to
 interface, adapt or use parts of their codes:
   Stefan Grimme, W. Hujo, H. Kruse, P. Pracht,  : VdW corrections, initial TS optimization,
                  C. Bannwarth, S. Ehlert,         DFT functionals, gCP, sTDA/sTD-DF
                  L. Wittmann, M. Mueller
   Ed Valeev, F. Pavosevic, A. Kumar             : LibInt (2-el integral package), F12 methods
   Garnet Chan, S. Sharma, J. Yang, R. Olivares  : DMRG
   Ulf Ekstrom                                   : XCFun DFT Library
   Mihaly Kallay                                 : mrcc  (arbitrary order and MRCC methods)
   Frank Weinhold                                : gennbo (NPA and NBO analysis)
   Simon Mueller                                 : openCOSMO-RS
   Christopher J. Cramer and Donald G. Truhlar   : smd solvation model
   Lars Goerigk                                  : TD-DFT with DH, B97 family of functionals
   V. Asgeirsson, H. Jonsson                     : NEB implementation
   FAccTs GmbH                                   : IRC, NEB, NEB-TS, DLPNO-Multilevel, CI-OPT
                                                   MM, QMMM, 2- and 3-layer-ONIOM, Crystal-QMMM,
                                                   LR-CPCM, SF, NACMEs, symmetry and pop. for TD-DFT,
                                                   nearIR, NL-DFT gradient (VV10), updates on ESD,
                                                   ML-optimized integration grids, MBIS, APM,
                                                   GOAT, DOCKER, SOLVATOR, interface openCOSMO-RS
   S Lehtola, MJT Oliveira, MAL Marques          : LibXC Library
   Liviu Ungur et al                             : ANISO software


 Your calculation uses the libint2 library for the computation of 2-el integrals
 For citations please refer to: http://libint.valeyev.net

 Your ORCA version has been built with support for libXC version: 6.2.2
 For citations please refer to: https://libxc.gitlab.io

 This ORCA versions uses:
   CBLAS   interface :  Fast vector & matrix operations
   LAPACKE interface :  Fast linear algebra routines
   SCALAPACK package :  Parallel linear algebra routines
   Shared memory     :  Shared parallel matrices
   BLAS/LAPACK       :  OpenBLAS 0.3.27  USE64BITINT DYNAMIC_ARCH NO_AFFINITY Haswell SINGLE_THREADED
        Core in use  :  Haswell
   Copyright (c) 2011-2014, The OpenBLAS Project


================================================================================

----- Orbital basis set information -----
Your calculation utilizes the basis: aug-cc-pVDZ 
    H, B-Ne : Obtained from the ccRepo (grant-hill.group.shef.ac.uk/ccrepo) Feb. 2017
              R. A. Kendall, T. H. Dunning, Jr., R. J. Harrison, J. Chem. Phys. 96, 6796 (1992)
         He : Obtained from the ccRepo (grant-hill.group.shef.ac.uk/ccrepo) Feb. 2017
              D. E. Woon, T. H. Dunning, Jr., J. Chem. Phys. 100, 2975 (1994)
  Li-Be, Na : Obtained from the ccRepo (grant-hill.group.shef.ac.uk/ccrepo) Feb. 2017
              B. P. Prascher, D. E. Woon, K. A. Peterson, T. H. Dunning, Jr., A. K. Wilson, Theor. Chem. Acc. 128, 69 (2011)
         Mg : Obtained from the Peterson Research Group Website (tyr0.chem.wsu.edu/~kipeters) Feb. 2017
              B. P. Prascher, D. E. Woon, K. A. Peterson, T. H. Dunning, Jr., A. K. Wilson, Theor. Chem. Acc. 128, 69 (2011)
      Al-Ar : Obtained from the ccRepo (grant-hill.group.shef.ac.uk/ccrepo) Feb. 2017
              D. E. Woon, T. H. Dunning, Jr., J. Chem. Phys. 98, 1358 (1993)
      Sc-Zn : Obtained from the ccRepo (grant-hill.group.shef.ac.uk/ccrepo) Feb. 2017
              N. B. Balabanov, K. A. Peterson, J. Chem. Phys. 123, 064107 (2005)
              N. B. Balabanov, K. A. Peterson, J. Chem. Phys. 125, 074110 (2006)
      Ga-Kr : Obtained from the ccRepo (grant-hill.group.shef.ac.uk/ccrepo) Feb. 2017
              A. K. Wilson, D. E. Woon, K. A. Peterson, T. H. Dunning, Jr., J. Chem. Phys. 110, 7667 (1999)

----- AuxC basis set information -----
Your calculation utilizes the auxiliary basis: aug-cc-pVDZ/C 
  H-He, B, Ne, Al-Ar, Ga-Ge, Se-Br : Obtained from the EMSL Basis Set Exchange (bse.pnl.gov) Feb. 2017
                                     F. Weigend, A. Kohn, C. Hattig, J. Chem. Phys. 116, 3175 (2002)
                            Be, Mg : Obtained from the TURBOMOLE 7.0 basis set library
                                     C. Haettig, Phys. Chem. Chem. Phys. 7, 59 (2005)
                               C-F : Obtained from the EMSL Basis Set Exchange (bse.pnl.gov) Feb. 2017
                                     C. Haettig, Phys. Chem. Chem. Phys. 7, 59 (2005)
                                     F. Weigend, A. Kohn, C. Hattig, J. Chem. Phys. 116, 3175 (2002)
                                As : Obtained from the EMSL Basis Set Exchange (bse.pnl.gov) Feb. 2017
                                     C. Haettig, G. Schmitz, J. Kossmann, Phys. Chem. Chem. Phys. 14, 6549 (2012)
                                Kr : Obtained from the TURBOMOLE 7.0 basis set library
                                     F. Weigend, A. Kohn, C. Hattig, J. Chem. Phys. 116, 3175 (2002)
                                     S function revised in Sep. 2009

================================================================================
                                        WARNINGS
                       Please study these warnings very carefully!
================================================================================


WARNING: Post HF methods need fully converged wavefunctions
  ===> : Setting SCFConvForced true
         You can overwrite this default with %scf ConvForced false 


================================================================================
                                       INPUT FILE
================================================================================
NAME = AR3LD_4.8_4.8_3.6.inp
|  1> # MP2 scan of the potential energy curve for Ar...Ar
|  2>                 ! HFLD aug-cc-pvdz aug-cc-pvdz/C verytightscf
|  3>                 *xyz 0 1
|  4>                 Ar(1)	0    0	0.00000000000000
|  5>                 Ar(2)	3.6	0    0.00000000000000
|  6>                 Ar(3)	1.8	4.449719092257397    0.00000000000000
|  7>                 **                         ****END OF INPUT****
================================================================================

                       ****************************
                       * Single Point Calculation *
                       ****************************

---------------------------------
CARTESIAN COORDINATES (ANGSTROEM)
---------------------------------
  Ar     0.000000    0.000000    0.000000
  Ar     3.600000    0.000000    0.000000
  Ar     1.800000    4.449719    0.000000

----------------------------
CARTESIAN COORDINATES (A.U.)
----------------------------
  NO LB      ZA    FRAG     MASS         X           Y           Z
   0 Ar   18.0000    1    39.948    0.000000    0.000000    0.000000
   1 Ar   18.0000    2    39.948    6.803014    0.000000    0.000000
   2 Ar   18.0000    3    39.948    3.401507    8.408750    0.000000

----------------------------------------------
CARTESIAN COORDINATES OF FRAGMENTS (ANGSTROEM)
----------------------------------------------

 FRAGMENT 1 
  Ar    0.000000    0.000000    0.000000

 FRAGMENT 2 
  Ar    3.600000    0.000000    0.000000

 FRAGMENT 3 
  Ar    1.800000    4.449719    0.000000

--------------------------------
INTERNAL COORDINATES (ANGSTROEM)
--------------------------------
 Ar     0   0   0     0.000000000000     0.00000000     0.00000000
 Ar     1   0   0     3.600000000000     0.00000000     0.00000000
 Ar     1   2   0     4.800000000000    67.97568716     0.00000000

---------------------------
INTERNAL COORDINATES (A.U.)
---------------------------
 Ar     0   0   0     0.000000000000     0.00000000     0.00000000
 Ar     1   0   0     6.803014082117     0.00000000     0.00000000
 Ar     1   2   0     9.070685442822    67.97568716     0.00000000

---------------------
BASIS SET INFORMATION
---------------------
There are 1 groups of distinct atoms

 Group   1 Type Ar  : 35s16p2d contracted to 5s4p2d pattern {11111111/7711/11}

Atom   0Ar   basis set group =>   1
Atom   1Ar   basis set group =>   1
Atom   2Ar   basis set group =>   1
---------------------------------
AUXILIARY/C BASIS SET INFORMATION
---------------------------------
There are 1 groups of distinct atoms

 Group   1 Type Ar  : 10s8p6d4f contracted to 10s8p6d4f pattern {1111111111/11111111/111111/1111}

Atom   0Ar   basis set group =>   1
Atom   1Ar   basis set group =>   1
Atom   2Ar   basis set group =>   1
------------------------------------------------------------------------------
                             ORCA STARTUP CALCULATIONS
------------------------------------------------------------------------------
------------------------------------------------------------------------------
                   ___                                                        
                  /   \      - P O W E R E D   B Y -                         
                 /     \                                                     
                 |  |  |   _    _      __       _____    __    __             
                 |  |  |  | |  | |    /  \     |  _  \  |  |  /  |          
                  \  \/   | |  | |   /    \    | | | |  |  | /  /          
                 / \  \   | |__| |  /  /\  \   | |_| |  |  |/  /          
                |  |  |   |  __  | /  /__\  \  |    /   |      \           
                |  |  |   | |  | | |   __   |  |    \   |  |\   \          
                \     /   | |  | | |  |  |  |  | |\  \  |  | \   \       
                 \___/    |_|  |_| |__|  |__|  |_| \__\ |__|  \__/        
                                                                              
                      - O R C A' S   B I G   F R I E N D -                    
                                      &                                       
                       - I N T E G R A L  F E E D E R -                       
                                                                              
 v1 FN, 2020, v2 2021, v3 2022-2024                                           
------------------------------------------------------------------------------


----------------------
SHARK INTEGRAL PACKAGE
----------------------

Number of atoms                             ...      3
Number of basis functions                   ...    150
Number of shells                            ...     72
Maximum angular momentum                    ...      2
Integral batch strategy                     ... SHARK/LIBINT Hybrid
RI-J (if used) integral strategy            ... SPLIT-RIJ (Revised 2003 algorithm where possible)
Printlevel                                  ...      1
Contraction scheme used                     ... PARTIAL GENERAL contraction
Prescreening option                         ... SCHWARTZ
   Thresh                                   ... 1.000e-12
   Tcut                                     ... 1.000e-14
   Tpresel                                  ... 1.000e-14 
Coulomb Range Separation                    ... NOT USED
Exchange Range Separation                   ... NOT USED
Multipole approximations                    ... NOT USED
Finite Nucleus Model                        ... NOT USED
CABS basis                                  ... NOT available
Auxiliary Coulomb fitting basis             ... NOT available
Auxiliary J/K fitting basis                 ... NOT available
Auxiliary Correlation fitting basis         ... AVAILABLE
   # of basis functions in Aux-C            ...    276
   # of shells in Aux-C                     ...     84
   Maximum angular momentum in Aux-C        ...      3
Auxiliary 'external' fitting basis          ... NOT available

Checking pre-screening integrals            ... done (  0.0 sec) Dimension = 72
Save PGC pre-screening integrals            ... done (  0.0 sec) Dimension = 72
Calculate PGC overlap integrals             ... done (  0.1 sec) Dimension = 33
Calculating pre-screening integrals (ORCA)  ... done (  0.3 sec) Dimension = 33
Check shell pair data                       ... done (  0.0 sec)
Shell pair information
Shell pair cut-off parameter TPreSel        ...   1.0e-14
Total number of shell pairs                 ...      2628
Shell pairs after pre-screening             ...      1648
Total number of primitive shell pairs       ...      2628
Primitive shell pairs kept                  ...      1644
          la=0 lb=0:    430 shell pairs
          la=1 lb=0:    627 shell pairs
          la=1 lb=1:    250 shell pairs
          la=2 lb=0:    184 shell pairs
          la=2 lb=1:    136 shell pairs
          la=2 lb=2:     21 shell pairs

Calculating one electron integrals          ... done (  0.0 sec)
Calculating RI/C V-Matrix + Cholesky decomp.... done (  0.0 sec)
Calculating Nuclear repulsion               ... done (  0.0 sec) ENN=    119.064871867500 Eh

Diagonalization of the overlap matrix:
Smallest eigenvalue                        ... 2.921e-02
Time for diagonalization                   ...    0.001 sec
Threshold for overlap eigenvalues          ... 1.000e-07
Number of eigenvalues below threshold      ... 0
Time for construction of square roots      ...    0.000 sec
Total time needed                          ...    0.002 sec

-------------------
DFT GRID GENERATION
-------------------

General Integration Accuracy     IntAcc      ... 4.388
Radial Grid Type                 RadialGrid  ... OptM3 with GC (2021)
Angular Grid (max. ang.)         AngularGrid ... 4 (Lebedev-302)
Angular grid pruning method      GridPruning ... 4 (adaptive)
Weight generation scheme         WeightScheme... mBecke (2022)
Basis function cutoff            BFCut       ... 1.0000e-12
Integration weight cutoff        WCut        ... 1.0000e-14
Partially contracted basis set               ... off
Rotationally invariant grid construction     ... off
Angular grids for H and He will be reduced by one unit

Total number of grid points                  ...    22080
Total number of batches                      ...      347
Average number of points per batch           ...       63
Average number of grid points per atom       ...     7360

---------------------
SHARK GRID GENERATION
---------------------

General Integration Accuracy     IntAcc      ... 4.388
Radial Grid Type                 RadialGrid  ... OptM3 with GC (2021)
Angular Grid (max. ang.)         AngularGrid ... 4 (Lebedev-302)
Angular grid pruning method      GridPruning ... 4 (adaptive)
Weight generation scheme         WeightScheme... mBecke (2022)
Basis function cutoff            BFCut       ... 1.0000e-12
Integration weight cutoff        WCut        ... 1.0000e-14
Partially contracted basis set               ... off
Rotationally invariant grid construction     ... off
Angular grids for H and He will be reduced by one unit
Core-polarized basis detected: some atoms will have their core
                               angular grid increased.
Steep s-basis detected: some atoms will have their radial
                        grid points doubled.

Total number of grid points                  ...    58016
Total number of batches                      ...      908
Average number of points per batch           ...       63
Average number of grid points per atom       ...    19339
Initializing property integral containers    ... done (  0.0 sec)

SHARK setup successfully completed in   3.1 seconds

Maximum memory used throughout the entire STARTUP-calculation: 27.3 MB
-------------------------------------------------------------------------------
                                 ORCA GUESS
                   Start orbitals & Density for SCF / CASSCF
-------------------------------------------------------------------------------

------------
SCF SETTINGS
------------
Hamiltonian:
 Ab initio Hamiltonian  Method          .... Hartree-Fock(GTOs)


General Settings:
 Integral files         IntName         .... AR3LD_4.8_4.8_3.6
 Hartree-Fock type      HFTyp           .... RHF
 Total Charge           Charge          ....    0
 Multiplicity           Mult            ....    1
 Number of Electrons    NEL             ....   54
 Basis Dimension        Dim             ....   81
 Nuclear Repulsion      ENuc            ....    119.0648718675 Eh

Convergence Acceleration:
 AO-DIIS                CNVDIIS         .... on
   Start iteration      DIISMaxIt       ....    12
   Startup error        DIISStart       ....  0.200000
   # of expansion vecs  DIISMaxEq       ....     5
   Bias factor          DIISBfac        ....   1.050
   Max. coefficient     DIISMaxC        ....  10.000
 MO-DIIS                CNVKDIIS        .... off
 Trust-Rad. Augm. Hess. CNVTRAH         .... auto
   Auto Start mean grad. ratio tolernc. ....  1.125000
   Auto Start start iteration           ....    50
   Auto Start num. interpolation iter.  ....    10
   Max. Number of Micro iterations      ....    24
   Max. Number of Macro iterations      .... Maxiter - #DIIS iter
   Number of Davidson start vectors     ....     2
   Converg. threshold    (grad. norm)   ....   2.000e-06
   Grad. Scal. Fac. for Micro threshold ....   0.100
   Minimum threshold for Micro iter.    ....   1.000e-02
   NR start threshold (gradient norm)   ....   1.000e-04
   Initial trust radius                 ....   0.400
   Minimum AH scaling param. (alpha)    ....   1.000
   Maximum AH scaling param. (alpha)    .... 1000.000
   Quad. conv. algorithm                .... NR
   White noise on init. David. guess    .... on
   Maximum white noise                  ....   0.010
   Pseudo random numbers                .... off
   Inactive MOs                         .... canonical
   Orbital update algorithm             .... Taylor
   Preconditioner                       .... Diag
   Full preconditioner red. dimension   ....   250
 SOSCF                  CNVSOSCF        .... on
   Start iteration      SOSCFMaxIt      ....   150
   Startup grad/error   SOSCFStart      ....  0.003300
   Hessian update       SOSCFHessUp     .... L-BFGS
 Level Shifting         CNVShift        .... on
   Level shift para.    LevelShift      ....    0.2500
   Turn off err/grad.   ShiftErr        ....    0.0010
 Zerner damping         CNVZerner       .... off
 Static damping         CNVDamp         .... on
   Fraction old density DampFac         ....    0.7000
   Max. Damping (<1)    DampMax         ....    0.9800
   Min. Damping (>=0)   DampMin         ....    0.0000
   Turn off err/grad.   DampErr         ....    0.1000

SCF Procedure:
 Maximum # iterations   MaxIter         ....   125
 SCF integral mode      SCFMode         .... Direct
   Integral package                     .... SHARK and LIBINT hybrid scheme
 Reset frequency        DirectResetFreq ....    20
 Integral Threshold     Thresh          ....  1.000e-12 Eh
 Primitive CutOff       TCut            ....  1.000e-14 Eh

Convergence Tolerance:
 Convergence Check Mode ConvCheckMode   .... Total+1el-Energy
 Convergence forced     ConvForced      .... 1
 Energy Change          TolE            ....  1.000e-09 Eh
 1-El. energy change                    ....  1.000e-06 Eh
 Orbital Gradient       TolG            ....  2.000e-06
 Orbital Rotation angle TolX            ....  2.000e-06
 DIIS Error             TolErr          ....  1.000e-08

------------------------------
INITIAL GUESS: MODEL POTENTIAL
------------------------------
Loading Hartree-Fock densities                     ... done
Calculating cut-offs                               ... done
Initializing the effective Hamiltonian             ... done
Setting up the integral package (SHARK)            ... done
Starting the Coulomb interaction                   ... done (   0.0 sec)
Making the grid                                    ... done (   0.1 sec)
Mapping shells                                     ... done
Starting the XC term evaluation                    ... done (   0.0 sec)
Transforming the Hamiltonian                       ... done (   0.0 sec)
Diagonalizing the Hamiltonian                      ... done (   0.0 sec)
Back transforming the eigenvectors                 ... done (   0.0 sec)
Now organizing SCF variables                       ... done
                      ------------------
                      INITIAL GUESS DONE (   0.1 sec)
                      ------------------
             **** ENERGY FILE WAS UPDATED (AR3LD_4.8_4.8_3.6.en.tmp) ****
Finished Guess after   0.2 sec
Maximum memory used throughout the entire GUESS-calculation: 6.5 MB

-------------------------------------------------------------------------------------------
                                      ORCA LEAN-SCF
                              memory conserving SCF solver
-------------------------------------------------------------------------------------------

----------------------------------------D-I-I-S--------------------------------------------
Iteration    Energy (Eh)           Delta-E    RMSDP     MaxDP     DIISErr   Damp  Time(sec)
-------------------------------------------------------------------------------------------
               ***  Starting incremental Fock matrix formation  ***
    1    -1580.3847678253748654     0.00e+00  1.02e-03  1.73e-02  9.30e-02  0.700   0.7
    2    -1580.3897605101210502    -4.99e-03  7.97e-04  1.26e-02  6.66e-02  0.700   0.4
                               ***Turning on AO-DIIS***
    3    -1580.3933740510210555    -3.61e-03  6.32e-04  9.23e-03  4.74e-02  0.700   0.2
    4    -1580.3959648168638523    -2.59e-03  1.55e-03  2.17e-02  3.33e-02  0.000   0.3
                              *** Initializing SOSCF ***
---------------------------------------S-O-S-C-F--------------------------------------
Iteration    Energy (Eh)           Delta-E    RMSDP     MaxDP     MaxGrad    Time(sec)
--------------------------------------------------------------------------------------
    5    -1580.4022552348626505    -6.29e-03  7.91e-05  9.83e-04  1.02e-03     0.3
               *** Restarting incremental Fock matrix formation ***
    6    -1580.4022627295119037    -7.49e-06  3.88e-05  5.35e-04  2.58e-04     0.4
    7    -1580.4022641288004252    -1.40e-06  1.42e-05  1.73e-04  5.99e-05     0.3
    8    -1580.4022642160168743    -8.72e-08  7.48e-07  1.44e-05  7.37e-06     0.3
    9    -1580.4022642163786259    -3.62e-10  1.30e-07  2.01e-06  1.09e-06     0.2
                 **** Energy Check signals convergence ****

               *****************************************************
               *                     SUCCESS                       *
               *           SCF CONVERGED AFTER   9 CYCLES          *
               *****************************************************

             **** ENERGY FILE WAS UPDATED (AR3LD_4.8_4.8_3.6.en.tmp) ****

----------------
TOTAL SCF ENERGY
----------------

Total Energy       :      -1580.40226421637863 Eh          -43004.93194 eV

Components:
Nuclear Repulsion  :        119.06487186750002 Eh            3239.91988 eV
Electronic Energy  :      -1699.46713608387859 Eh          -46244.85182 eV
One Electron Energy:      -2422.73111710623061 Eh          -65925.86530 eV
Two Electron Energy:        723.26398102235203 Eh           19681.01349 eV

Virial components:
Potential Energy   :      -3160.81891013194672 Eh          -86010.25522 eV
Kinetic Energy     :       1580.41664591556810 Eh           43005.32328 eV
Virial Ratio       :          1.99999090005839

---------------
SCF CONVERGENCE
---------------

  Last Energy change         ...    3.6175e-10  Tolerance :   1.0000e-09
  Last MAX-Density change    ...    2.0062e-06  Tolerance :   1.0000e-08
  Last RMS-Density change    ...    1.2969e-07  Tolerance :   1.0000e-09
  Last DIIS Error            ...    1.0173e-03  Tolerance :   1.0000e-08
  Last Orbital Gradient      ...    1.0932e-06  Tolerance :   2.0000e-06
  Last Orbital Rotation      ...    9.6312e-07  Tolerance :   2.0000e-06


----------------
ORBITAL ENERGIES
----------------

  NO   OCC          E(Eh)            E(eV) 
   0   2.0000    -118.610584     -3227.5581 
   1   2.0000    -118.610040     -3227.5433 
   2   2.0000    -118.610040     -3227.5433 
   3   2.0000     -12.322768      -335.3196 
   4   2.0000     -12.322237      -335.3051 
   5   2.0000     -12.322230      -335.3049 
   6   2.0000      -9.571348      -260.4496 
   7   2.0000      -9.571346      -260.4496 
   8   2.0000      -9.571345      -260.4495 
   9   2.0000      -9.570826      -260.4354 
  10   2.0000      -9.570825      -260.4354 
  11   2.0000      -9.570824      -260.4354 
  12   2.0000      -9.570823      -260.4353 
  13   2.0000      -9.570819      -260.4352 
  14   2.0000      -9.570817      -260.4352 
  15   2.0000      -1.279769       -34.8243 
  16   2.0000      -1.278858       -34.7995 
  17   2.0000      -1.277452       -34.7612 
  18   2.0000      -0.602291       -16.3892 
  19   2.0000      -0.594247       -16.1703 
  20   2.0000      -0.593443       -16.1484 
  21   2.0000      -0.592406       -16.1202 
  22   2.0000      -0.592206       -16.1147 
  23   2.0000      -0.591398       -16.0928 
  24   2.0000      -0.590421       -16.0662 
  25   2.0000      -0.590254       -16.0616 
  26   2.0000      -0.581958       -15.8359 
  27   0.0000       0.122468         3.3325 
  28   0.0000       0.123778         3.3682 
  29   0.0000       0.128012         3.4834 
  30   0.0000       0.132889         3.6161 
  31   0.0000       0.154077         4.1927 
  32   0.0000       0.164103         4.4655 
  33   0.0000       0.165222         4.4959 
  34   0.0000       0.174919         4.7598 
  35   0.0000       0.180963         4.9242 
  36   0.0000       0.199359         5.4248 
  37   0.0000       0.256684         6.9847 
*Only the first 10 virtual orbitals were printed.

                    ********************************
                    * MULLIKEN POPULATION ANALYSIS *
                    ********************************

-------------------------
MULLIKEN FRAGMENT CHARGES
-------------------------
 Fragment   0 :   0.000056
 Fragment   1 :   0.000056
 Fragment   2 :  -0.000111
Sum of fragment charges:    0.0000000

---------------------------------
MULLIKEN FRAGMENT OVERLAP CHARGES
---------------------------------
                  0          1          2    
      0      18.000356  -0.002586   0.001762
      1      -0.002586  18.000356   0.001762
      2       0.001762   0.001762  17.998349

-----------------------
MULLIKEN ATOMIC CHARGES
-----------------------
   0 Ar:    0.000056
   1 Ar:    0.000056
   2 Ar:   -0.000111
Sum of atomic charges:    0.0000000

--------------------------------
MULLIKEN REDUCED ORBITAL CHARGES
--------------------------------
  0 Ars       :     5.999225  s :     5.999225
      pz      :     3.999971  p :    12.000458
      px      :     4.000510
      py      :     3.999978
      dz2     :     0.000049  d :     0.000261
      dxz     :     0.000029
      dyz     :     0.000000
      dx2y2   :     0.000152
      dxy     :     0.000032

  1 Ars       :     5.999225  s :     5.999225
      pz      :     3.999971  p :    12.000458
      px      :     4.000510
      py      :     3.999978
      dz2     :     0.000049  d :     0.000261
      dxz     :     0.000029
      dyz     :     0.000000
      dx2y2   :     0.000152
      dxy     :     0.000032

  2 Ars       :     5.999944  s :     5.999944
      pz      :     4.000001  p :    12.000150
      px      :     3.999989
      py      :     4.000160
      dz2     :     0.000004  d :     0.000018
      dxz     :     0.000000
      dyz     :     0.000000
      dx2y2   :     0.000007
      dxy     :     0.000006



                     *******************************
                     * LOEWDIN POPULATION ANALYSIS *
                     *******************************

------------------------
LOEWDIN FRAGMENT CHARGES
------------------------
 Fragment   0 :  -0.000105
 Fragment   1 :  -0.000105
 Fragment   2 :   0.000210

----------------------------
LOEWDIN FRAGMENT BOND ORDERS
----------------------------
                  0          1          2    
      0      18.000105   0.066443   0.004115
      1       0.066443  18.000105   0.004115
      2       0.004115   0.004115  17.999790

----------------------
LOEWDIN ATOMIC CHARGES
----------------------
   0 Ar:   -0.000105
   1 Ar:   -0.000105
   2 Ar:    0.000210

-------------------------------
LOEWDIN REDUCED ORBITAL CHARGES
-------------------------------
  0 Ars       :     5.993522  s :     5.993522
      pz      :     3.999983  p :    12.005694
      px      :     4.005565
      py      :     4.000146
      dz2     :     0.000216  d :     0.000889
      dxz     :     0.000018
      dyz     :     0.000001
      dx2y2   :     0.000634
      dxy     :     0.000020

  1 Ars       :     5.993522  s :     5.993522
      pz      :     3.999983  p :    12.005694
      px      :     4.005565
      py      :     4.000146
      dz2     :     0.000216  d :     0.000889
      dxz     :     0.000018
      dyz     :     0.000001
      dx2y2   :     0.000634
      dxy     :     0.000020

  2 Ars       :     5.999604  s :     5.999604
      pz      :     3.999995  p :    12.000166
      px      :     4.000043
      py      :     4.000128
      dz2     :     0.000004  d :     0.000020
      dxz     :     0.000000
      dyz     :     0.000001
      dx2y2   :     0.000009
      dxy     :     0.000005



                      *****************************
                      * MAYER POPULATION ANALYSIS *
                      *****************************

  NA   - Mulliken gross atomic population
  ZA   - Total nuclear charge
  QA   - Mulliken gross atomic charge
  VA   - Mayer's total valence
  BVA  - Mayer's bonded valence
  FA   - Mayer's free valence

  ATOM       NA         ZA         QA         VA         BVA        FA
  0 Ar    17.9999    18.0000     0.0001     0.0048     0.0048    -0.0000
  1 Ar    17.9999    18.0000     0.0001     0.0048     0.0048    -0.0000
  2 Ar    18.0001    18.0000    -0.0001     0.0038     0.0038    -0.0000

  Mayer bond orders larger than 0.100000
  => no bond orders to print

-------
TIMINGS
-------

Total SCF time: 0 days 0 hours 0 min 2 sec 

Total time                  ....       2.980 sec
Sum of individual times     ....       2.972 sec  ( 99.7%)

SCF preparation             ....       0.095 sec  (  3.2%)
Fock matrix formation       ....       2.863 sec  ( 96.1%)
  Startup                   ....       0.001 sec  (  0.0% of F)
  Coulomb+Exchange Fock     ....       2.859 sec  ( 99.9% of F)
Diagonalization             ....       0.000 sec  (  0.0%)
Density matrix formation    ....       0.003 sec  (  0.1%)
Total Energy calculation    ....       0.000 sec  (  0.0%)
Population analysis         ....       0.001 sec  (  0.0%)
Orbital Transformation      ....       0.001 sec  (  0.0%)
Orbital Orthonormalization  ....       0.000 sec  (  0.0%)
DIIS solution               ....       0.005 sec  (  0.2%)
SOSCF solution              ....       0.002 sec  (  0.1%)
Finished LeanSCF after   3.0 sec

Maximum memory used throughout the entire LEANSCF-calculation: 8.5 MB

------------------------------------------------------------------------------
                         ORCA PROPERTY INTEGRAL CALCULATIONS
------------------------------------------------------------------------------

GBWName                                   ... AR3LD_4.8_4.8_3.6.gbw
Number of atoms                           ...      3
Number of basis functions                 ...    150
Max core memory                           ...   1024 MB

Dipole integrals                          ... YES
Quadrupole integrals                      ...  NO
Linear momentum integrals                 ... YES
Angular momentum integrals                ... YES
Higher moments length integrals           ...  NO
Higher moments velocity integrals         ...  NO
Kinetic energy integrals                  ...  NO
GIAO right hand sides                     ...  NO
GIAO dipole derivative integrals          ...  NO
SOC integrals                             ...  NO
EPR diamagnetic integrals (GIAO)          ...  NO
EPR gauge integrals                       ...  NO
Field gradient integrals                  ...  NO (   0 nuclei)
Spin-dipole/Fermi contact integrals       ...  NO (   0 nuclei)
Contact density integrals                 ...  NO (   0 nuclei)
Nucleus-orbit integrals                   ...  NO (   0 nuclei)
Geometric perturbations                   ...  NO (   3 nuclei)

Choice of electric origin   ... Center of mass
Position of electric origin ... (  3.4015,  2.8029,  0.0000) 
Choice of magnetic origin   ... GIAO
Position of magnetic origin ... (  0.0000,  0.0000,  0.0000) 

Calculating integrals                     ... Electric Dipole (Length)     done (  0.0 sec)
Calculating integrals                     ... Linear Momentum              done (  0.0 sec)
Calculating integrals                     ... Angular Momentum  (ElOri)    done (  0.0 sec)

Property integrals calculated in   0.0 sec

Maximum memory used throughout the entire PROPINT-calculation: 6.6 MB


--------------------------------------------------------------------------------
                             ORCA-MATRIX DRIVEN CI
--------------------------------------------------------------------------------


Wavefunction type
-----------------
Correlation treatment                      ...      CCSD     
Single excitations                         ... ON
Orbital optimization                       ... OFF
Calculation of Z vector                    ... OFF
Calculation of Brueckner orbitals          ... OFF
Perturbative triple excitations            ... OFF
Calculation of F12 correction              ... OFF
Frozen core treatment                      ... chemical core (30 el)
Reference Wavefunction                     ... RHF
  Internal Orbitals:    15 ...   26 ( 12 MO's/ 24 electrons)
  Virtual  Orbitals:    27 ...   80 ( 54 MO's              )
Number of AO's                             ...     81
Number of electrons                        ...     54
Number of correlated electrons             ...     24

Algorithmic settings
--------------------
Integral transformation                    ... All integrals via the RI transformation
K(C) Formation                             ... RI-DLPNO
   PNO-Integral Storage                    ... ON DISK
   PNO occupation number cut-off           ... 3.330e-07
   Singles PNO occupation number cut-off   ... 9.990e-09
   PNO Mulliken prescreening cut-off       ... 1.000e-03
   Domain cut-off (Mulliken population)    ... 1.000e-03
   PNO Normalization                       ...    1
Maximum number of iterations               ...        50
Convergence tolerance (max. residuum)      ... 1.000e-06
Level shift for amplitude update           ... 2.000e-01
Maximum number of DIIS vectors             ...         7
DIIS turned on at iteration                ...         0
Damping before turning on DIIS             ...     0.500
Damping after turning on DIIS              ...     0.000
Pair specific amplitude update             ... OFF
Natural orbital iterations                 ... OFF
Perturbative natural orbital generation    ... OFF
Printlevel                                 ... 2

Singles Fock matrix elements calculated using PNOs.

Memory handling:
----------------
Maximum memory for working arrays          ...    512 MB
Data storage in matrix containers          ... UNCOMPRESSED
Data type for integral storage             ... DOUBLE
In-Core Storage of quantities:
   Amplitudes+Sigma Vector      ... NO
   J+K operators                ... NO
   DIIS vectors                 ... NO
   3-external integrals         ... NO
   4-external integrals         ... NO

Localization treatment:
-----------------------
Localization option                        ...    2
Localization threshhold                    ... -1.0e+00
Using relative localization threshhold     ... 1.0e-08
Neglect threshold for strong pairs         ... 1.000e-05 Eh
Prescreening threshold for very weak pairs ... 1.000e-07 Eh
Using randomized seed for localization     ... on

Initializing the integral package          ... done
Localizing the valence orbitals
Localizing the valence orbitals
------------------------------------------------------------------------------
                           ORCA ORBITAL LOCALIZATION
------------------------------------------------------------------------------

Input orbitals are from                  ... AR3LD_4.8_4.8_3.6.proc0.gbw
Output orbitals are to                   ... AR3LD_4.8_4.8_3.6.proc0.loc
Max. number of iterations                ... 128
Localizations seeded randomly            ... on
Convergence tolerance                    ... 2.000e-07
Using relative localization threshhold   ... 1.000e-08
Threshold for strong local MOs           ... 9.500e-01
Threshold for bond MOs                   ... 8.500e-01
Operator                                 ... 0
Orbital range for localization           ... 15 to 26
Localization criterion                   ... FOSTER-BOYS
Doing the dipole integrals     ... o.k.
Entering Jacobi type localization:
Using Cholesky decomposition as initial guess.
Initial value of the localization sum :   281.100858
ITERATION   0 : L=  287.8086156363 DL=  6.71e+00 (MAX-T)=  45.000 
ITERATION   1 : L=  287.8252812580 DL=  1.67e-02 (MAX-T)=   2.986 
ITERATION   2 : L=  287.8253367647 DL=  5.55e-05 (MAX-T)=   0.136 
ITERATION   3 : L=  287.8253724193 DL=  3.57e-05 (MAX-T)=   0.142 
ITERATION   4 : L=  287.8254201463 DL=  4.77e-05 (MAX-T)=   0.147 
ITERATION   5 : L=  287.8254699190 DL=  4.98e-05 (MAX-T)=   0.135 
ITERATION   6 : L=  287.8255095379 DL=  3.96e-05 (MAX-T)=   0.166 
ITERATION   7 : L=  287.8255525982 DL=  4.31e-05 (MAX-T)=   0.161 
ITERATION   8 : L=  287.8255892483 DL=  3.67e-05 (MAX-T)=   0.141 
ITERATION   9 : L=  287.8256300387 DL=  4.08e-05 (MAX-T)=   0.127 
ITERATION  10 : L=  287.8256636945 DL=  3.37e-05 (MAX-T)=   0.166 
ITERATION  11 : L=  287.8256996018 DL=  3.59e-05 (MAX-T)=   0.161 
ITERATION  12 : L=  287.8257448406 DL=  4.52e-05 (MAX-T)=   0.145 
ITERATION  13 : L=  287.8257882678 DL=  4.34e-05 (MAX-T)=   0.138 
ITERATION  14 : L=  287.8258232208 DL=  3.50e-05 (MAX-T)=   0.154 
ITERATION  15 : L=  287.8258631577 DL=  3.99e-05 (MAX-T)=   0.118 
ITERATION  16 : L=  287.8259007974 DL=  3.76e-05 (MAX-T)=   0.141 
ITERATION  17 : L=  287.8259303885 DL=  2.96e-05 (MAX-T)=   0.141 
ITERATION  18 : L=  287.8259709318 DL=  4.05e-05 (MAX-T)=   0.149 
ITERATION  19 : L=  287.8260146493 DL=  4.37e-05 (MAX-T)=   0.130 
ITERATION  20 : L=  287.8260611813 DL=  4.65e-05 (MAX-T)=   0.149 
ITERATION  21 : L=  287.8261042268 DL=  4.30e-05 (MAX-T)=   0.143 
ITERATION  22 : L=  287.8261407195 DL=  3.65e-05 (MAX-T)=   0.126 
ITERATION  23 : L=  287.8261668207 DL=  2.61e-05 (MAX-T)=   0.153 
ITERATION  24 : L=  287.8262066628 DL=  3.98e-05 (MAX-T)=   0.146 
ITERATION  25 : L=  287.8262401017 DL=  3.34e-05 (MAX-T)=   0.140 
ITERATION  26 : L=  287.8262789462 DL=  3.88e-05 (MAX-T)=   0.154 
ITERATION  27 : L=  287.8263062937 DL=  2.73e-05 (MAX-T)=   0.130 
ITERATION  28 : L=  287.8263368031 DL=  3.05e-05 (MAX-T)=   0.159 
ITERATION  29 : L=  287.8263714175 DL=  3.46e-05 (MAX-T)=   0.106 
ITERATION  30 : L=  287.8264054898 DL=  3.41e-05 (MAX-T)=   0.141 
ITERATION  31 : L=  287.8264412286 DL=  3.57e-05 (MAX-T)=   0.117 
ITERATION  32 : L=  287.8264758036 DL=  3.46e-05 (MAX-T)=   0.141 
ITERATION  33 : L=  287.8265077938 DL=  3.20e-05 (MAX-T)=   0.138 
ITERATION  34 : L=  287.8265313089 DL=  2.35e-05 (MAX-T)=   0.145 
ITERATION  35 : L=  287.8265648175 DL=  3.35e-05 (MAX-T)=   0.122 
ITERATION  36 : L=  287.8266018992 DL=  3.71e-05 (MAX-T)=   0.142 
ITERATION  37 : L=  287.8266341288 DL=  3.22e-05 (MAX-T)=   0.125 
ITERATION  38 : L=  287.8266691173 DL=  3.50e-05 (MAX-T)=   0.142 
ITERATION  39 : L=  287.8267089958 DL=  3.99e-05 (MAX-T)=   0.111 
ITERATION  40 : L=  287.8267444818 DL=  3.55e-05 (MAX-T)=   0.151 
ITERATION  41 : L=  287.8267794192 DL=  3.49e-05 (MAX-T)=   0.128 
ITERATION  42 : L=  287.8268129384 DL=  3.35e-05 (MAX-T)=   0.119 
ITERATION  43 : L=  287.8268434010 DL=  3.05e-05 (MAX-T)=   0.120 
ITERATION  44 : L=  287.8268788458 DL=  3.54e-05 (MAX-T)=   0.120 
ITERATION  45 : L=  287.8269118074 DL=  3.30e-05 (MAX-T)=   0.122 
ITERATION  46 : L=  287.8269392918 DL=  2.75e-05 (MAX-T)=   0.127 
ITERATION  47 : L=  287.8269748304 DL=  3.55e-05 (MAX-T)=   0.131 
ITERATION  48 : L=  287.8270046182 DL=  2.98e-05 (MAX-T)=   0.119 
ITERATION  49 : L=  287.8270286288 DL=  2.40e-05 (MAX-T)=   0.129 
ITERATION  50 : L=  287.8270521985 DL=  2.36e-05 (MAX-T)=   0.142 
ITERATION  51 : L=  287.8270674342 DL=  1.52e-05 (MAX-T)=   0.132 
ITERATION  52 : L=  287.8270845659 DL=  1.71e-05 (MAX-T)=   0.128 
ITERATION  53 : L=  287.8271166676 DL=  3.21e-05 (MAX-T)=   0.130 
ITERATION  54 : L=  287.8271401604 DL=  2.35e-05 (MAX-T)=   0.113 
ITERATION  55 : L=  287.8271622998 DL=  2.21e-05 (MAX-T)=   0.122 
ITERATION  56 : L=  287.8271851367 DL=  2.28e-05 (MAX-T)=   0.092 
ITERATION  57 : L=  287.8272154437 DL=  3.03e-05 (MAX-T)=   0.120 
ITERATION  58 : L=  287.8272411883 DL=  2.57e-05 (MAX-T)=   0.088 
ITERATION  59 : L=  287.8272710469 DL=  2.99e-05 (MAX-T)=   0.130 
ITERATION  60 : L=  287.8272980899 DL=  2.70e-05 (MAX-T)=   0.120 
ITERATION  61 : L=  287.8273235059 DL=  2.54e-05 (MAX-T)=   0.116 
ITERATION  62 : L=  287.8273470979 DL=  2.36e-05 (MAX-T)=   0.092 
ITERATION  63 : L=  287.8273731221 DL=  2.60e-05 (MAX-T)=   0.116 
ITERATION  64 : L=  287.8273980559 DL=  2.49e-05 (MAX-T)=   0.112 
ITERATION  65 : L=  287.8274220499 DL=  2.40e-05 (MAX-T)=   0.091 
ITERATION  66 : L=  287.8274513781 DL=  2.93e-05 (MAX-T)=   0.117 
ITERATION  67 : L=  287.8274738343 DL=  2.25e-05 (MAX-T)=   0.085 
ITERATION  68 : L=  287.8274977999 DL=  2.40e-05 (MAX-T)=   0.109 
ITERATION  69 : L=  287.8275184125 DL=  2.06e-05 (MAX-T)=   0.083 
ITERATION  70 : L=  287.8275371627 DL=  1.88e-05 (MAX-T)=   0.110 
ITERATION  71 : L=  287.8275550779 DL=  1.79e-05 (MAX-T)=   0.078 
ITERATION  72 : L=  287.8275771776 DL=  2.21e-05 (MAX-T)=   0.111 
ITERATION  73 : L=  287.8275959830 DL=  1.88e-05 (MAX-T)=   0.094 
ITERATION  74 : L=  287.8276177058 DL=  2.17e-05 (MAX-T)=   0.093 
ITERATION  75 : L=  287.8276394421 DL=  2.17e-05 (MAX-T)=   0.089 
ITERATION  76 : L=  287.8276564361 DL=  1.70e-05 (MAX-T)=   0.105 
ITERATION  77 : L=  287.8276776951 DL=  2.13e-05 (MAX-T)=   0.090 
ITERATION  78 : L=  287.8276969019 DL=  1.92e-05 (MAX-T)=   0.090 
ITERATION  79 : L=  287.8277182045 DL=  2.13e-05 (MAX-T)=   0.090 
ITERATION  80 : L=  287.8277338424 DL=  1.56e-05 (MAX-T)=   0.098 
ITERATION  81 : L=  287.8277515919 DL=  1.77e-05 (MAX-T)=   0.094 
ITERATION  82 : L=  287.8277636918 DL=  1.21e-05 (MAX-T)=   0.091 
ITERATION  83 : L=  287.8277825621 DL=  1.89e-05 (MAX-T)=   0.088 
ITERATION  84 : L=  287.8278020235 DL=  1.95e-05 (MAX-T)=   0.096 
ITERATION  85 : L=  287.8278196723 DL=  1.76e-05 (MAX-T)=   0.089 
ITERATION  86 : L=  287.8278304139 DL=  1.07e-05 (MAX-T)=   0.091 
ITERATION  87 : L=  287.8278496116 DL=  1.92e-05 (MAX-T)=   0.097 
ITERATION  88 : L=  287.8278645808 DL=  1.50e-05 (MAX-T)=   0.098 
ITERATION  89 : L=  287.8278791166 DL=  1.45e-05 (MAX-T)=   0.094 
ITERATION  90 : L=  287.8278952761 DL=  1.62e-05 (MAX-T)=   0.087 
ITERATION  91 : L=  287.8279117847 DL=  1.65e-05 (MAX-T)=   0.072 
ITERATION  92 : L=  287.8279239283 DL=  1.21e-05 (MAX-T)=   0.073 
ITERATION  93 : L=  287.8279399520 DL=  1.60e-05 (MAX-T)=   0.090 
ITERATION  94 : L=  287.8279549859 DL=  1.50e-05 (MAX-T)=   0.082 
ITERATION  95 : L=  287.8279685708 DL=  1.36e-05 (MAX-T)=   0.085 
ITERATION  96 : L=  287.8279801577 DL=  1.16e-05 (MAX-T)=   0.068 
ITERATION  97 : L=  287.8279945404 DL=  1.44e-05 (MAX-T)=   0.083 
ITERATION  98 : L=  287.8280084797 DL=  1.39e-05 (MAX-T)=   0.068 
ITERATION  99 : L=  287.8280200189 DL=  1.15e-05 (MAX-T)=   0.069 
ITERATION 100 : L=  287.8280324573 DL=  1.24e-05 (MAX-T)=   0.071 
ITERATION 101 : L=  287.8280460258 DL=  1.36e-05 (MAX-T)=   0.069 
ITERATION 102 : L=  287.8280574221 DL=  1.14e-05 (MAX-T)=   0.085 
ITERATION 103 : L=  287.8280719496 DL=  1.45e-05 (MAX-T)=   0.073 
ITERATION 104 : L=  287.8280844257 DL=  1.25e-05 (MAX-T)=   0.072 
ITERATION 105 : L=  287.8280966500 DL=  1.22e-05 (MAX-T)=   0.061 
ITERATION 106 : L=  287.8281078717 DL=  1.12e-05 (MAX-T)=   0.065 
ITERATION 107 : L=  287.8281182277 DL=  1.04e-05 (MAX-T)=   0.069 
ITERATION 108 : L=  287.8281297110 DL=  1.15e-05 (MAX-T)=   0.080 
ITERATION 109 : L=  287.8281416209 DL=  1.19e-05 (MAX-T)=   0.074 
ITERATION 110 : L=  287.8281532562 DL=  1.16e-05 (MAX-T)=   0.068 
ITERATION 111 : L=  287.8281645320 DL=  1.13e-05 (MAX-T)=   0.060 
ITERATION 112 : L=  287.8281784899 DL=  1.40e-05 (MAX-T)=   0.059 
ITERATION 113 : L=  287.8281892316 DL=  1.07e-05 (MAX-T)=   0.075 
ITERATION 114 : L=  287.8282003308 DL=  1.11e-05 (MAX-T)=   0.061 
ITERATION 115 : L=  287.8282130213 DL=  1.27e-05 (MAX-T)=   0.069 
ITERATION 116 : L=  287.8282210679 DL=  8.05e-06 (MAX-T)=   0.065 
ITERATION 117 : L=  287.8282343722 DL=  1.33e-05 (MAX-T)=   0.062 
ITERATION 118 : L=  287.8282478932 DL=  1.35e-05 (MAX-T)=   0.067 
ITERATION 119 : L=  287.8282580488 DL=  1.02e-05 (MAX-T)=   0.066 
ITERATION 120 : L=  287.8282699560 DL=  1.19e-05 (MAX-T)=   0.061 
ITERATION 121 : L=  287.8282790701 DL=  9.11e-06 (MAX-T)=   0.054 
ITERATION 122 : L=  287.8282912828 DL=  1.22e-05 (MAX-T)=   0.061 
ITERATION 123 : L=  287.8283033422 DL=  1.21e-05 (MAX-T)=   0.059 
ITERATION 124 : L=  287.8283138761 DL=  1.05e-05 (MAX-T)=   0.062 
ITERATION 125 : L=  287.8283256232 DL=  1.17e-05 (MAX-T)=   0.058 
ITERATION 126 : L=  287.8283382910 DL=  1.27e-05 (MAX-T)=   0.057 
ITERATION 127 : L=  287.8283490565 DL=  1.08e-05 (MAX-T)=   0.055 
MAXIMUM NO OF ITERATIONS EXCEEDED - LOCALIZATION NOT CONVERGED


--------------------------------------------------------------------------------
                    LOCALIZED MOLECULAR ORBITAL COMPOSITIONS
--------------------------------------------------------------------------------

The Mulliken populations for each LMO on each atom are computed
The LMO`s will be ordered according to atom index and type
  (A) Strongly localized MO`s have populations of >=0.950 on one atom
  (B) Two center bond orbitals have populations of >=0.850 on two atoms
  (C) Other MO`s are considered to be `delocalized`

FOUND  -  12 strongly local MO`s
       -   0 two center bond MO`s
       -   0 significantly delocalized MO`s

Rather strongly localized orbitals:
MO  26:   2Ar -   0.999736
MO  25:   2Ar -   0.999924
MO  24:   2Ar -   0.999953
MO  23:   2Ar -   0.999947
MO  22:   1Ar -   0.999811
MO  21:   1Ar -   0.999734
MO  20:   1Ar -   0.999882
MO  19:   1Ar -   1.000217
MO  18:   0Ar -   0.999782
MO  17:   0Ar -   0.999932
MO  16:   0Ar -   0.999912
MO  15:   0Ar -   1.000018
Localized MO's were stored in: AR3LD_4.8_4.8_3.6.proc0.loc

Localizing the core orbitals
Localization sum:   351.849063408 
------------------------------------------------------------------------------
                           ORCA ORBITAL LOCALIZATION
------------------------------------------------------------------------------

Input orbitals are from                  ... AR3LD_4.8_4.8_3.6.proc0.loc
Output orbitals are to                   ... AR3LD_4.8_4.8_3.6.proc0.loc
Max. number of iterations                ... 128
Localizations seeded randomly            ... on
Convergence tolerance                    ... 2.000e-07
Using relative localization threshhold   ... 1.000e-08
Threshold for strong local MOs           ... 9.500e-01
Threshold for bond MOs                   ... 8.500e-01
Operator                                 ... 0
Orbital range for localization           ... 0 to 14
Localization criterion                   ... FOSTER-BOYS
Doing the dipole integrals     ... o.k.
Entering Jacobi type localization:
Using Cholesky decomposition as initial guess.
Initial value of the localization sum :   351.392603
ITERATION   0 : L=  351.8482512916 DL=  4.56e-01 (MAX-T)=  45.000 
ITERATION   1 : L=  351.8490542529 DL=  8.03e-04 (MAX-T)=   2.926 
ITERATION   2 : L=  351.8490631374 DL=  8.88e-06 (MAX-T)=   0.438 
ITERATION   3 : L=  351.8490634081 DL=  2.71e-07 (MAX-T)=   0.096 
LOCALIZATION SUM CONVERGED


--------------------------------------------------------------------------------
                    LOCALIZED MOLECULAR ORBITAL COMPOSITIONS
--------------------------------------------------------------------------------

The Mulliken populations for each LMO on each atom are computed
The LMO`s will be ordered according to atom index and type
  (A) Strongly localized MO`s have populations of >=0.950 on one atom
  (B) Two center bond orbitals have populations of >=0.850 on two atoms
  (C) Other MO`s are considered to be `delocalized`

FOUND  -  15 strongly local MO`s
       -   0 two center bond MO`s
       -   0 significantly delocalized MO`s

Rather strongly localized orbitals:
MO  14:   2Ar -   1.000001
MO  13:   2Ar -   1.000001
MO  12:   2Ar -   1.000001
MO  11:   2Ar -   1.000000
MO  10:   2Ar -   1.000002
MO   9:   1Ar -   1.000013
MO   8:   1Ar -   1.000007
MO   7:   1Ar -   1.000009
MO   6:   1Ar -   1.000000
MO   5:   1Ar -   1.000010
MO   4:   0Ar -   1.000000
MO   3:   0Ar -   1.000008
MO   2:   0Ar -   1.000011
MO   1:   0Ar -   1.000008
MO   0:   0Ar -   1.000013
Localized MO's were stored in: AR3LD_4.8_4.8_3.6.proc0.loc

Warning: reference  - re-canonicalizations have been set to INT 1 VIRT 1
Warning: internal orbitals are localized - no re-canonicalization of internal orbitals
Warning: UsePNO is turned on - no re-canonicalization of internal and virtual orbitals
Fock densities were made 
Making Fock matrix and reference energy:

--------------------------
CLOSED-SHELL FOCK OPERATOR
--------------------------

Time needed for Fock operator              ...            0.433 sec
Reference energy                           ...  -1580.402264216

--------------
DLPNO SETTINGS (2015 fully linear scaling implementation)
--------------

TCutMKN:           1.000e-03
TCutPAO:           1.000e-03
TCutPNO:           3.330e-07
TCutPNOSingles:    9.990e-09
TCutEN:            9.700e-01
TCutPAOExt:        1.000e-01
TCutPairs:         1.000e-05
TCutPre:           1.000e-07
TCutOSV:           1.000e-06
TCutDOij:          1.000e-05
TCutDO:            1.000e-02
TCutC:             1.000e-04
TCutCPAO:          1.000e-03
TCutCMO:           1.000e-03
TScaleDOMP2PreScr: 2.000e+00
TScaleMKNMP2PreScr:1.000e+01
TScalePNOMP2PreScr:1.000e+00
PAO overlap thresh 1.000e-08
Using PNOs for Singles Fock computation
Use new domains
Use fully linear algorithm

--------------------------
Mulliken population of the LMOs            ... ok
Performing proximity check                 ... No problems found
Calculating differential overlap integrals ... ok

------------------------
PRESCREENING OF HF PAIRS
------------------------

   .... Finished loop over pairs

                  ============================================
                    30 of   78 PAIRS WERE SKIPPED as HF PAIRS
                  ============================================

Total time spent in skipping HF pairs                 ...     0.000 sec
--------------------------
ELECTRON PAIR PRESCREENING
--------------------------

Dipole-based pair screening          .... used

   TCutDOij = 1.000000e-05
   TCutPre  = 1.000000e-07
   .... Finished loop over pairs
Total time spent in the prescreening                  ...     0.000 sec
sum of pair energies estimated for screened out pairs ...       0.000000000000 Eh
Thresholds for map construction and integral transformation for crude MP2:
   TCutMKN                    ...     1.0e-02
   TCutDO                     ...     2.0e-02
   TCutPairs                  ...     1.0e-05
   TCutPNO_CrudeMP2           ...     3.3e-07
   TCutPNOSingles_CrudeMP2    ...     1.0e-08
--------------------------------
LOCAL RI TRANSFORMATION (IAVPAO)
--------------------------------

Orbital window:      15 to 26
Number of PAOs:      81
Basis functions:     81 (33 shells)
Aux. functions:     276 (84 shells)
Use SHARK:           on
Have SHARK:         yes

Processing maps (0.0 sec)
Average map sizes:
   Aux shells -> MOs              12.0
   Aux shells -> PAOs             81.0
   MOs        -> AO shells        25.7
   PAOs       -> AO shells        33.0

Calculating integrals (0.1 sec, 2.050 MB)
Sorting integrals (0.0 sec, 2.047 MB)
Total time for the integral transformation: 0.1 sec
--------------------------------
INITIAL GUESS AND PNO GENERATION
--------------------------------

Populations of internal orbitals onto Fragments:
  15:      1.000    0.000    0.000  assigned to fragment   1
  16:      1.000    0.000    0.000  assigned to fragment   1
  17:      1.000    0.000    0.000  assigned to fragment   1
  18:      1.000    0.000    0.000  assigned to fragment   1
  19:      0.000    1.000    0.000  assigned to fragment   2
  20:      0.000    1.000    0.000  assigned to fragment   2
  21:      0.000    1.000    0.000  assigned to fragment   2
  22:      0.000    1.000    0.000  assigned to fragment   2
  23:      0.000    0.000    1.000  assigned to fragment   3
  24:      0.000    0.000    1.000  assigned to fragment   3
  25:      0.000    0.000    1.000  assigned to fragment   3
  26:      0.000    0.000    1.000  assigned to fragment   3

Summary assignment:
   4 orbitals assigned to fragment   1
   4 orbitals assigned to fragment   2
   4 orbitals assigned to fragment   3

PNO truncation parameters                   .... 
    PAOOverlapThresh   =        1.000e-08

Pair selection                          .... 
  modified with fragment specific keywords
  Pairs will be selected according to these
  intra(inter)fragment cutoffs
  1 <-> 1
    Intrafragment pairs 1 <-> 1 neglected for CCSD
  1 <-> 2
    TCutPairs          =        1.000e-05
    TCutPNO            =        3.330e-07
    TCutMKN            =        1.000e-02
    TCutDO             =        2.000e-02
    TCutPNOSingles     =        9.990e-09
    TCutMP2Pairs       =        1.000e-06
  1 <-> 3
    TCutPairs          =        1.000e-05
    TCutPNO            =        3.330e-07
    TCutMKN            =        1.000e-02
    TCutDO             =        2.000e-02
    TCutPNOSingles     =        9.990e-09
    TCutMP2Pairs       =        1.000e-06
  2 <-> 2
    Intrafragment pairs 2 <-> 2 neglected for CCSD
  2 <-> 3
    TCutPairs          =        1.000e-05
    TCutPNO            =        3.330e-07
    TCutMKN            =        1.000e-02
    TCutDO             =        2.000e-02
    TCutPNOSingles     =        9.990e-09
    TCutMP2Pairs       =        1.000e-06
  3 <-> 3
    Intrafragment pairs 3 <-> 3 neglected for CCSD

Type of local MP2 treatment                 .... semi-local MP2
Strategy for PNO selection                  .... occupation number selection
Pair density normalization                  .... MP2 norm
Spin component scaling                      .... not used

   .... Finished loop over pairs
Making pair pair interaction lists          ... done

                       ===========================
                         24 OF   60 PAIRS ARE KEPT CCSD PAIRS
                         24 OF   60 PAIRS ARE KEPT MP2 PAIRS
                         12 OF   60 PAIRS ARE SKIPPED
                       ===========================

Total time spent in the initial guess                 ...     0.085 sec
SL-MP2 correlation energy (all non-screened pairs)    ...      -0.001054891412 Eh

Initial PNO correlation energy                        ...      -0.000877295029 Eh
sum of pair energies prescreened and skipped MP2 pairs...       0.000000000000 Eh
sum of pair energies of crude MP2 skipped pairs only  ...       0.000000000000 Eh
sum of MP2 pair energies for pairs that were not kept ...      -0.000151297807 Eh
sum of PNO error estimates for the kept pairs         ...      -0.000026298577 Eh
                                                          --------------------
sum of all corrections                                         -0.000177596383
Initial total correlation energy                               -0.001054891412
Thresholds for map construction and integral transformation for fine MP2 and CCSD(T) calculation:
   TCutMKN   ...     1.0e-03
   TCutDO    ...     1.0e-02
   TCutPairs ...     1.0e-05
   TCutCMO   ...     1.0e-03
   TCutCPAO  ...     1.0e-03

--------------------------------
LOCAL RI TRANSFORMATION (IAVPAO)
--------------------------------

Orbital window:      15 to 26
Number of PAOs:      81
Basis functions:     81 (33 shells)
Aux. functions:     276 (84 shells)
Use SHARK:           on
Have SHARK:         yes

Processing maps (0.0 sec)
Average map sizes:
   Aux shells -> MOs              12.0
   Aux shells -> PAOs             81.0
   MOs        -> AO shells        25.7
   PAOs       -> AO shells        33.0

Calculating integrals (0.1 sec, 2.050 MB)
Sorting integrals (0.0 sec, 2.047 MB)
Total time for the integral transformation: 0.1 sec
--------------------------------
INITIAL GUESS AND PNO GENERATION
--------------------------------

Populations of internal orbitals onto Fragments:
  15:      1.000    0.000    0.000  assigned to fragment   1
  16:      1.000    0.000    0.000  assigned to fragment   1
  17:      1.000    0.000    0.000  assigned to fragment   1
  18:      1.000    0.000    0.000  assigned to fragment   1
  19:      0.000    1.000    0.000  assigned to fragment   2
  20:      0.000    1.000    0.000  assigned to fragment   2
  21:      0.000    1.000    0.000  assigned to fragment   2
  22:      0.000    1.000    0.000  assigned to fragment   2
  23:      0.000    0.000    1.000  assigned to fragment   3
  24:      0.000    0.000    1.000  assigned to fragment   3
  25:      0.000    0.000    1.000  assigned to fragment   3
  26:      0.000    0.000    1.000  assigned to fragment   3

Summary assignment:
   4 orbitals assigned to fragment   1
   4 orbitals assigned to fragment   2
   4 orbitals assigned to fragment   3

PNO truncation parameters                   .... 
    PAOOverlapThresh   =        1.000e-08

Pair selection                          .... 
  modified with fragment specific keywords
  Pairs will be selected according to these
  intra(inter)fragment cutoffs
  1 <-> 1
    Intrafragment pairs 1 <-> 1 neglected for CCSD
  1 <-> 2
    TCutPairs          =        1.000e-05
    TCutPNO            =        3.330e-07
    TCutMKN            =        1.000e-03
    TCutDO             =        1.000e-02
    TCutPNOSingles     =        9.990e-09
    TCutMP2Pairs       =        1.000e-06
  1 <-> 3
    TCutPairs          =        1.000e-05
    TCutPNO            =        3.330e-07
    TCutMKN            =        1.000e-03
    TCutDO             =        1.000e-02
    TCutPNOSingles     =        9.990e-09
    TCutMP2Pairs       =        1.000e-06
  2 <-> 2
    Intrafragment pairs 2 <-> 2 neglected for CCSD
  2 <-> 3
    TCutPairs          =        1.000e-05
    TCutPNO            =        3.330e-07
    TCutMKN            =        1.000e-03
    TCutDO             =        1.000e-02
    TCutPNOSingles     =        9.990e-09
    TCutMP2Pairs       =        1.000e-06
  3 <-> 3
    Intrafragment pairs 3 <-> 3 neglected for CCSD

Type of local MP2 treatment                 .... semi-local MP2
Strategy for PNO selection                  .... occupation number selection
Pair density normalization                  .... MP2 norm
Spin component scaling                      .... not used

   .... Finished loop over pairs

 PNO Occupation Number Statistics: 
  | Av. % of trace(Dij) retained        ...  98.478181183048
  | sigma^2 in % of trace(Dij) retained ...   7.84e-01
  | Av. % of trace(Di) retained         ...  99.999961155906
  | sigma^2 in % of trace(Di) retained  ...   1.24e-09
 Distributions of % trace(Dij) recovered:
  |   [90.0, 99.0) ...    16 ( 66.7 % of all pairs)
  |   [99.0, 99.9) ...     8 ( 33.3 % of all pairs)
 Distributions of % trace(Di) recovered :
  |       >= 99.9  ...    12 (100.0 % of all I-pairs )

Making pair pair interaction lists          ... done

                       ===========================
                         24 OF   60 PAIRS ARE KEPT
                       ===========================

Total time spent in the initial guess                 ...     0.096 sec
SL-MP2 correlation energy (all non-screened pairs)    ...      -0.001054893565 Eh

Initial PNO correlation energy                        ...      -0.000877297044 Eh
sum of pair energies estimated for screened out pairs ...       0.000000000000 Eh
sum of MP2 pair energies for pairs that were not kept ...      -0.000151297807 Eh
sum of PNO error estimates for the kept pairs         ...      -0.000026298715 Eh
                                                          --------------------
sum of all corrections                                         -0.000177596521
Initial total correlation energy                               -0.001054893565
Thresholds for map construction and integral transformation for fine MP2 and CCSD(T) calculation:
   TCutMKN   ...     1.0e-03
   TCutDO    ...     1.0e-02
   TCutPairs ...     1.0e-05
   TCutCMO   ...     1.0e-03
   TCutCPAO  ...     1.0e-03

Time for aux screen maps:            0.000
Time for maps after fine MP2:            0.000
-----------------------------
LOCAL RI TRANSFORMATION (IJV)
-----------------------------

Orbital window:      15 to 26
Basis functions:     81 (33 shells)
Aux. functions:     276 (84 shells)
Use SHARK:           on

Processing maps (0.0 sec)
Average map sizes:
   Aux shells -> MOs(i)           10.0
   Aux shells -> MOs(j)           12.0
   MOs        -> AO shells        25.7

Calculating integrals NOTE: Switching SHARK to General Contraction for MDCI
      If that is not desired please turn off the PGCFlag in the input (%shark PGCFlag 0 end)
(0.4 sec, 0.256 MB)
Sorting integrals (0.0 sec, 0.253 MB)
Total time for the integral transformation: 0.4 sec
--------------------------------
LOCAL RI TRANSFORMATION (VABPAO)
--------------------------------

Number of PAOs:      81
Basis functions:     81 (33 shells)
Aux. functions:     276 (84 shells)
Use SHARK:           on

Processing maps (0.0 sec)
Average map sizes:
   Aux shells -> PAOs             81.0
   PAOs       -> AO shells        33.0

Calculating integrals NOTE: Switching SHARK to General Contraction for MDCI
      If that is not desired please turn off the PGCFlag in the input (%shark PGCFlag 0 end)
(0.4 sec, 13.819 MB)
Finished


-------------------------------------
Pair Pair Term precalculation with     
RI-(ij|mn) and (im|jn) transformation  
ON THE FLY                             
-------------------------------------

   IBatch   1 (of   1)              ... done (    0.037 sec)
Total EXT                           ...           0.037 sec

IAVPA Available = YES
VABPAO Available= YES
IJV Available   = YES
IJK Available   = NO
PNO3i Available = YES
PNO3j Available = YES
PNO4 Available  = YES
---------------------
RI-PNO TRANSFORMATION
---------------------

Total Number of PNOs                   ...   154
Average number of PNOs per pair        ...     6
Maximal number of PNOs per pair        ...     7
   #pairs with  1 -  5 PNOs   :    0
   #pairs with  6 - 10 PNOs   :   24
   #pairs with 11 - 15 PNOs   :    0
   #pairs with 16 - 20 PNOs   :    0
   #pairs with 21 - 25 PNOs   :    0
   #pairs with 26 - 30 PNOs   :    0
   #pairs with 31 - 35 PNOs   :    0
   #pairs with 36 - 40 PNOs   :    0
   #pairs with 41 - 45 PNOs   :    0
   #pairs with 46 - 50 PNOs   :    0

Generation of (ij|ab)[P] integrals            ... on
Generation of (ia|bc)[P],(ja|bc)[P] integrals ... on
Storage of 3 and 4 external integrals         ... on
Generation of ALL (ka|bc)[P] integrals        ... on
Keep RI integrals in memory                   ... off

Ibatch:  1 (of  1)
Starting 2-4 index PNO integral generation ... done

Timings:
Total PNO integral transformation time     ...          0.060 sec
Size of the 3-external file                ...         0 MB
Size of the 4-external file                ...         0 MB
Size of the IKJL file                      ...         0 MB
Size of the all 3-external file            ...         0 MB
Size of the 1-external file                ...         0 MB

Making pair/pair overlap matrices          ... done (    0.013 sec)
Size of the pair overlap file              ... 0 MB
Redoing the guess amplitudes               ... done (    0.000 sec)

-------------------------
FINAL STARTUP INFORMATION
-------------------------

E(0)                                       ...  -1580.402264216
E(SL-MP2)                                  ...     -0.001054894
E(SL-MP2) including corrections            ...     -0.001054894
Initial E(tot)                             ...  -1580.403319110
<T|T>                                      ...      0.000337704
Number of pairs included                   ... 24
Total number of pairs                      ... 78

------------------------------------------------
                  RHF COUPLED CLUSTER ITERATIONS
------------------------------------------------

Number of PNO amplitudes to be optimized   ...          994
Number of non-PNO amplitudes               ...        69984
Untruncated number of regular amplitudes   ...       227448

Iter       E(tot)           E(Corr)          Delta-E          Residual     Time
  0  -1580.403318989     -0.000877177      0.000177717      0.000411101    0.01
                           *** Turning on DIIS ***
  1  -1580.403340088     -0.000898275     -0.000021099      0.000078047    0.01
  2  -1580.403346857     -0.000905044     -0.000006769      0.000016489    0.01
  3  -1580.403347579     -0.000905767     -0.000000723      0.000003103    0.01
  4  -1580.403347598     -0.000905786     -0.000000019      0.000000646    0.01
               --- The Coupled-Cluster iterations have converged ---

----------------------
COUPLED CLUSTER ENERGY
----------------------

E(0)                                       ...  -1580.402264216
E(CORR)(strong-pairs)                      ...     -0.000905786
E(CORR)(weak-pairs)                        ...     -0.000177597
E(CORR)(corrected)                         ...     -0.001083382
E(TOT)                                     ...  -1580.403347598
Singles Norm <S|S>**1/2                    ...      0.000612710  
T1 diagnostic                              ...      0.000125069  

------------------
LARGEST AMPLITUDES
------------------
  19-> 27  17-> 27       0.001426
  19-> 27  18-> 27       0.001303
  19-> 27  18-> 32       0.001260
  19-> 27  17-> 32       0.001259
  19-> 27  15-> 27       0.001234
  20-> 27  17-> 27       0.001185
  19-> 27  16-> 27       0.000967
  20-> 32  17-> 27       0.000967
  20-> 27  15-> 27       0.000965
  20-> 27  17-> 32       0.000945
  19-> 32  17-> 27       0.000918
  20-> 28  17-> 28       0.000892
  19-> 32  18-> 27       0.000872
  20-> 32  15-> 27       0.000857
  19-> 27  16-> 31       0.000850
  20-> 32  17-> 32       0.000825


 ===========================================================
         LOCAL ENERGY DECOMPOSITION FOR DLPNO-CC METHODS
 ===========================================================

Maximum Iterations for the Localization .. 600
Tolerance for the Localization          ..  1.00e-06
Number of fragments = 3
Fragment  1:  0
Fragment  2:  1
Fragment  3:  2

Populations of internal orbitals onto Fragments:
   0:      1.000    0.000    0.000  assigned to fragment   1
   1:      1.000    0.000    0.000  assigned to fragment   1
   2:      1.000    0.000    0.000  assigned to fragment   1
   3:      1.000    0.000    0.000  assigned to fragment   1
   4:      1.000    0.000    0.000  assigned to fragment   1
   5:      0.000    1.000    0.000  assigned to fragment   2
   6:      0.000    1.000    0.000  assigned to fragment   2
   7:      0.000    1.000    0.000  assigned to fragment   2
   8:      0.000    1.000    0.000  assigned to fragment   2
   9:      0.000    1.000    0.000  assigned to fragment   2
  10:      0.000    0.000    1.000  assigned to fragment   3
  11:      0.000    0.000    1.000  assigned to fragment   3
  12:      0.000    0.000    1.000  assigned to fragment   3
  13:      0.000    0.000    1.000  assigned to fragment   3
  14:      0.000    0.000    1.000  assigned to fragment   3
  15:      1.000    0.000    0.000  assigned to fragment   1
  16:      1.000    0.000    0.000  assigned to fragment   1
  17:      1.000    0.000    0.000  assigned to fragment   1
  18:      1.000    0.000    0.000  assigned to fragment   1
  19:      0.000    1.000    0.000  assigned to fragment   2
  20:      0.000    1.000    0.000  assigned to fragment   2
  21:      0.000    1.000    0.000  assigned to fragment   2
  22:      0.000    1.000    0.000  assigned to fragment   2
  23:      0.000    0.000    1.000  assigned to fragment   3
  24:      0.000    0.000    1.000  assigned to fragment   3
  25:      0.000    0.000    1.000  assigned to fragment   3
  26:      0.000    0.000    1.000  assigned to fragment   3

Summary assignment:
   9 orbitals assigned to fragment   1
   9 orbitals assigned to fragment   2
   9 orbitals assigned to fragment   3


--------------------------------
CORRELATION ENERGY DECOMPOSITION
--------------------------------


--------------------------------------------------
INTER- vs INTRA-FRAGMENT CORRELATION ENERGIES (Eh)
--------------------------------------------------

                                   Fragment   1            Fragment   2            Fragment   3            
                         ----------------------  ----------------------  ----------------------  
Intra strong pairs               0.000000000000         0.000000000000         0.000000000000  sum=        0.000000000000
Intra weak pairs                 0.000000000000         0.000000000000         0.000000000000  sum=        0.000000000000
Singles contribution            -0.000000000115        -0.000000000165         0.000000000004  sum=       -0.000000000276
                         ----------------------  ----------------------  ----------------------  
                                -0.000000000115        -0.000000000165         0.000000000004  sum=       -0.000000000276


Interaction correlation for Fragments   2 and   1:
--------------------------------------------------
Inter strong pairs               -0.000811763662 (   -0.509 kcal/mol)
Inter weak pairs                 -0.000025675519 (   -0.016 kcal/mol)
                          ----------------------
Total interaction                -0.000837439181 (   -0.525 kcal/mol)

Interaction correlation for Fragments   3 and   1:
--------------------------------------------------
Inter strong pairs               -0.000058388536 (   -0.037 kcal/mol)
Inter weak pairs                 -0.000064133089 (   -0.040 kcal/mol)
                          ----------------------
Total interaction                -0.000122521624 (   -0.077 kcal/mol)
Interaction correlation for Fragments   3 and   2:
--------------------------------------------------
Inter strong pairs               -0.000035633133 (   -0.022 kcal/mol)
Inter weak pairs                 -0.000087787914 (   -0.055 kcal/mol)
                          ----------------------
Total interaction                -0.000123421047 (   -0.077 kcal/mol)



Sum of INTRA-fragment correlation energies  =        -0.000000000276
Sum of INTER-fragment correlation energies  =        -0.001083381853
                                              ---------------------
Total correlation energy                    =        -0.001083382128

---------------------------------------------
DECOMPOSITION OF CCSD STRONG PAIRS INTO      
    DOUBLE EXCITATION TYPES (Eh)             
---------------------------------------------

Foster-Boys localization is used for localizing PNOs

Intra fragment contributions: 
INTRA Fragment 1                        0.000000000 
INTRA Fragment 2                        0.000000000 
INTRA Fragment 3                        0.000000000 

Charge transfer contributions: 
Charge Transfer 1 to 2                 -0.000027999 
Charge Transfer 1 to 3                 -0.000000065 
Charge Transfer 2 to 1                 -0.000025506 
Charge Transfer 2 to 3                 -0.000000042 
Charge Transfer 3 to 1                 -0.000000066 
Charge Transfer 3 to 2                 -0.000000041 

Dispersion contributions: 
Dispersion  2,1                        -0.000758259 
Dispersion  3,1                        -0.000058257 
Dispersion  3,2                        -0.000035550 

Singles contributions:                   
Singles energy                         -0.000000000 
 
Delocalized contributions: 
Delocalized correlation                 0.000000000 

#Time for LED analysis ..       0.0 (sec)



--------------------------------------------------------------------------------
                                    TIMINGS
--------------------------------------------------------------------------------


Total execution time                   ...        2.139 sec

Localization of occupied MO's          ...        0.062 sec (  2.9%)
Fock Matrix Formation                  ...        0.433 sec ( 20.2%)
Global overlap, Fock, MKN matrices     ...        0.093 sec (  4.3%)
Differential overlap integrals         ...        0.146 sec (  6.8%)
Organizing maps                        ...        0.001 sec (  0.1%)
RI 3-index integral generations        ...        0.870 sec ( 40.7%)
RI-PNO integral transformation         ...        0.111 sec (  5.2%)
Initial Guess                          ...        0.185 sec (  8.6%)
DIIS Solver                            ...        0.001 sec (  0.1%)
State Vector Update                    ...        0.000 sec (  0.0%)
Sigma-vector construction              ...        0.070 sec (  3.3%)
  <D|H|D>(0-ext)                       ...        0.007 sec ( 10.1% of sigma)
  <D|H|D>(2-ext)                       ...        0.005 sec (  6.9% of sigma)
  <D|H|D>(4-ext-corr)                  ...        0.002 sec (  2.8% of sigma)
  CCSD doubles correction              ...        0.001 sec (  2.1% of sigma)
  <S|H|S>                              ...        0.014 sec ( 19.8% of sigma)
  <S|H|D>(1-ext)                       ...        0.007 sec (  9.5% of sigma)
  Fock-dressing                        ...        0.022 sec ( 31.1% of sigma)
  Singles amplitudes                   ...        0.002 sec (  2.6% of sigma)
  (ik|jl)-dressing                     ...        0.005 sec (  6.8% of sigma)
  (ij|ab),(ia|jb)-dressing             ...        0.002 sec (  3.3% of sigma)
Local Energy Decomposition             ...        0.008 sec (  0.4% of ALL)


Maximum memory used throughout the entire MDCI-calculation: 51.1 MB
----------------------------   ----------------
Inter-fragment dispersion       -0.001029663
----------------------------   ----------------


-------------------------   --------------------
FINAL SINGLE POINT ENERGY     -1580.403293879284 
-------------------------   --------------------


------------------------------------------------------------------------------
                              ORCA PROPERTY CALCULATIONS
------------------------------------------------------------------------------

GBWName                                 ... AR3LD_4.8_4.8_3.6.gbw
Number of atoms                         ...      3
Number of basis functions               ...    150
Max core memory                         ...   1024 MB

Electric properties:
Dipole moment                           ... YES
Quadrupole moment                       ...  NO
Static polarizability (Dipole/Dipole)   ...  NO
Static polarizability (Dipole/Quad.)    ...  NO
Static polarizability (Quad./Quad.)     ...  NO
Static polarizability (Velocity)        ...  NO

Atomic electric properties:
Dipole moment                           ...  NO
Quadrupole moment                       ...  NO
Static polarizability                   ...  NO

Choice of electric origin               ... Center of mass
Position of electric origin             ...     3.401507     2.802917     0.000000

General magnetic properties:
Magnetizability                         ...  NO

EPR properties:
g-Tensor (aka g-matrix)                 ...  NO
Zero-Field splitting spin-orbit         ...  NO
Zero-field splitting spin-spin          ...  NO
Hyperfine couplings                     ...  NO (   0 nuclei)
Quadrupole couplings                    ...  NO (   0 nuclei)
Contact density                         ...  NO (   0 nuclei)

NMR properties:
Chemical shifts                         ...  NO (   0 nuclei)
Spin-rotation constants                 ...  NO (   0 nuclei)
Spin-spin couplings                     ...  NO (   0 nuclei,    0 pairs)

Choice of magnetic origin               ... GIAO
Position of magnetic origin             ...     0.000000     0.000000     0.000000

Properties with geometric perturbations:
SCF Hessian                             ...  NO
IR spectrum                             ...  NO
VCD spectrum                            ...  NO
X-ray spectroscopy properties:
SCF XES/XAS/RIXS spectra                ...  NO


-------------
DIPOLE MOMENT
-------------

Method             : SCF
Type of density    : Electron Density
Multiplicity       :   1
Irrep              :   0
Energy             : -1580.4022642163786259 Eh
Relativity type    : 
Basis              : AO
                                X                 Y                 Z
Electronic contribution:     -0.000000000       0.000102411      -0.000000000
Nuclear contribution   :      0.000000000       0.000000000       0.000000000
                        -----------------------------------------
Total Dipole Moment    :     -0.000000000       0.000102411      -0.000000000
                        -----------------------------------------
Magnitude (a.u.)       :      0.000102411
Magnitude (Debye)      :      0.000260308



--------------------
Rotational spectrum 
--------------------
 
Rotational constants in cm-1:             0.065122             0.031969             0.021443 
Rotational constants in MHz :          1952.304507           958.404031           642.831972 

Dipole components along the rotational axes: 
x,y,z [a.u.] :     0.000102    -0.000000    -0.000000 
x,y,z [Debye]:     0.000260    -0.000000    -0.000000 

 

Dipole moment calculation done in   0.0 sec 

Maximum memory used throughout the entire PROP-calculation: 6.8 MB

--------------------------------
SUGGESTED CITATIONS FOR THIS RUN
--------------------------------

Below you find a list of papers that are relevant to this ORCA run
We neither can nor want to force you to cite these papers, but we appreciate if you do
You receive ORCA, which is the product of decades of hard work by many enthusiastic individuals, for free
The only thing we kindly ask in return is that you cite our papers,
We deeply appreciate it, if you show your appreciation for ORCA by not just citing the generic ORCA reference.

Please note that relegating all ORCA citations to the supporting information does *not* help us.
SI sections are not indexed - citations you put there will not count into any citation statistics
But we need these citations in order to attract the funding resources that allow us to do what we are doing

Therefore, if you are a happy ORCA user, please consider citing a few of the papers listed below in the main body of your paper

In addition to the list printed below, the program has created the file AR3LD_4.8_4.8_3.6.bibtex that contains the list in bibtex format
You can import this file easily into all common literature databanks and citation aid programs


List of essential papers. We consider these as the minimum necessary citations

  1. Neese,F.
     Software update: the ORCA program system, version 5.0
     WIRES Comput. Molec. Sci., 2022 12(1)e1606
     doi.org/10.1002/wcms.1606

List of papers to cite with high priority. The work reported in these papers was absolutely
necessary for this run to complete.
Our perspective: the developers of density functionals and basis sets usually get cited in chemistry papers
Good! But without the algorithms to do something with them, the functionals or basis sets would not do anything.
Hence, in our opinion, the algorithm design and method developments papers are equally worthy of getting cited

  1. Neese,F.; Hansen,A.; Liakos,D.G.
     Efficient and accurate approximations to the local coupled cluster singles doubles method using a truncated pair natural orbital basis
     J. Chem. Phys., 2009 131 064103
     doi.org/10.1063/1.3173827
  2. Neese,F.; Wennmohs,F.; Hansen,A.
     Efficient and accurate local approximations to coupled-electron pair approaches: An attempt to revive the pair natural orbital method
     J. Chem. Phys., 2009 130 114108
     doi.org/10.1063/1.3086717
  3. Riplinger,C.; Neese,F.
     An efficient and near linear scaling pair natural orbital based local coupled cluster method
     J. Chem. Phys., 2013 138(3)Art. No. 034106
     doi.org/10.1063/1.4773581
  4. Datta,D.; Kossmann,S.; Neese,F.
     Analytic energy derivatives for the calculation of the first-order molecular properties using the domain-based local pair-natural orbital coupled-cluster theory
     J. Chem. Phys., 2016 145 
     doi.org/10.1063/1.4962369
  5. Riplinger,C.; Pinski,P.; Becker,U.; Valeev,E.F.; Neese,F.
     Sparse maps-A systematic infrastructure for reduced-scaling electronic structure methods. II. Linear scaling domain based pair natural orbital coupled cluster theory
     J. Chem. Phys., 2016 144 
     doi.org/10.1063/1.4939030
  6. Schneider,W.B.; Bistoni,G.; Sparta,M.; Saitow,M.; Riplinger,C.; Auer,A.A.; Neese,F.
     Decomposition of Intermolecular Interaction Energies within the Local Pair Natural Orbital Coupled Cluster Framework
     J. Theo. Comp. Chem., 2016 12 4778-4792
     doi.org/10.1021/acs.jctc.6b00523
  7. Bistoni,G.; Riplinger,C.; Minenkov,Y.; Cavallo,L.; Auer,A.A.; Neese,F.
     Treating Subvalence Correlation Effects in Domain Based Pair Natural Orbital Coupled Cluster Calculations: An Out-of-the-Box Approach
     J. Theo. Comp. Chem., 2017 13 3220-3227
     doi.org/10.1021/acs.jctc.7b00352
  8. Altun,A.; Neese,F.; Bistoni,G.
     HFLD: A Nonempirical London Dispersion-Corrected Hartree-Fock Method for the Quantification and Analysis of Noncovalent Interaction Energies of Large Molecular Systems
     J. Chem. Theory Comput., 2019 15 5894-5907
     doi.org/10.1021/acs.jctc.9b00425
  9. Neese,F.
     The SHARK Integral Generation and Digestion System
     J. Comp. Chem., 2022  1-16
     doi.org/10.1002/jcc.26942
 10. Altun,A.; Neese,F.; Bistoni,G.
     Open-Shell Variant of the London Dispersion-Corrected Hartree–Fock Method (HFLD) for the Quantification and Analysis of Noncovalent Interaction Energies
     J. Chem. Theory Comput., 2022 XX XXXX-XXXX
     doi.org/10.1021/acs.jctc.1c01295

List of suggested additional citations. These are papers that are important in the 'surrounding' of 
of this run, or papers that preceded the highly important papers. If you like your results we are grateful for a citation.

  1. Neese,F.
     The ORCA program system
     WIRES Comput. Molec. Sci., 2012 2(1)73-78
     doi.org/10.1002/wcms.81
  2. Neese,F.
     Software update: the ORCA program system, version 4.0
     WIRES Comput. Molec. Sci., 2018 8(1)1-6
     doi.org/10.1002/wcms.1327
  3. Neese,F.; Wennmohs,F.; Becker,U.; Riplinger,C.
     The ORCA quantum chemistry program package
     J. Chem. Phys., 2020 152 Art. No. L224108
     doi.org/10.1063/5.0004608
  4. Bistoni,G.
     Finding chemical concepts in the Hilbert space: Coupled cluster analyses of noncovalent interactions
     WIRES Comput. Molec. Sci., 2020 10(3)e1442
     doi.org/10.1002/wcms.1442

List of optional additional citations

  1. Neese,F.
     Approximate second-order SCF convergence for spin unrestricted wavefunctions
     Chem. Phys. Lett., 2000 325(1-3)93-98
     doi.org/10.1016/s0009-2614(00)00662-x

Timings for individual modules:

Sum of individual times          ...        8.658 sec (=   0.144 min)
Startup calculation              ...        3.134 sec (=   0.052 min)  36.2 %
SCF iterations                   ...        3.270 sec (=   0.055 min)  37.8 %
Property integrals               ...        0.036 sec (=   0.001 min)   0.4 %
Property calculations            ...        0.061 sec (=   0.001 min)   0.7 %
MDCI module                      ...        2.157 sec (=   0.036 min)  24.9 %
                             ****ORCA TERMINATED NORMALLY****
TOTAL RUN TIME: 0 days 0 hours 0 minutes 8 seconds 741 msec
