
                                 *****************
                                 * O   R   C   A *
                                 *****************

                                            #,                                       
                                            ###                                      
                                            ####                                     
                                            #####                                    
                                            ######                                   
                                           ########,                                 
                                     ,,################,,,,,                         
                               ,,#################################,,                 
                          ,,##########################################,,             
                       ,#########################################, ''#####,          
                    ,#############################################,,   '####,        
                  ,##################################################,,,,####,       
                ,###########''''           ''''###############################       
              ,#####''   ,,,,##########,,,,          '''####'''          '####       
            ,##' ,,,,###########################,,,                        '##       
           ' ,,###''''                  '''############,,,                           
         ,,##''                                '''############,,,,        ,,,,,,###''
      ,#''                                            '''#######################'''  
     '                                                          ''''####''''         
             ,#######,   #######,   ,#######,      ##                                
            ,#'     '#,  ##    ##  ,#'     '#,    #''#        ,####,   ,####,        
            ##       ##  ##   ,#'  ##            #'  '#       #'       #'  '#        
            ##       ##  #######   ##           ,######,      #####,   #    #        
            '#,     ,#'  ##    ##  '#,     ,#' ,#      #,     #,   #   #,  ,#        
             '#######'   ##     ##  '#######'  #'      '#     '####' # '####'        



                #########################################################
                #                        -***-                          #
                #          Department of theory and spectroscopy        #
                #                                                       #
                #                      Frank Neese                      #
                #                                                       #
                #     Directorship, Architecture, Infrastructure        #
                #                    SHARK, DRIVERS                     #
                #        Core code/Algorithms in most modules           #
                #                                                       #
                #        Max Planck Institute fuer Kohlenforschung      #
                #                Kaiser Wilhelm Platz 1                 #
                #                 D-45470 Muelheim/Ruhr                 #
                #                      Germany                          #
                #                                                       #
                #                  All rights reserved                  #
                #                        -***-                          #
                #########################################################


                         Program Version 6.0.0  -   RELEASE  -


 With contributions from (in alphabetic order):
   Daniel Aravena         : Magnetic Suceptibility
   Michael Atanasov       : Ab Initio Ligand Field Theory (pilot matlab implementation)
   Alexander A. Auer      : GIAO ZORA, VPT2 properties, NMR spectrum
   Ute Becker             : All parallelization in ORCA, NUMFREQ, NUMCALC
   Giovanni Bistoni       : ED, misc. LED, open-shell LED, HFLD
   Martin Brehm           : Molecular dynamics
   Dmytro Bykov           : pre 5.0 version of the SCF Hessian
   Marcos Casanova-Páez   : Triplet and SCS-CIS(D). UHF-(DLPNO)-IP/EA/STEOM-CCSD. UHF-CVS-IP/STEOM-CCSD
   Vijay G. Chilkuri      : MRCI spin determinant printing, contributions to CSF-ICE
   Pauline Colinet        : FMM embedding
   Dipayan Datta          : RHF DLPNO-CCSD density
   Achintya Kumar Dutta   : EOM-CC, STEOM-CC
   Nicolas Foglia         : Exact transition moments, OPA infrastructure, MCD improvements
   Dmitry Ganyushin       : Spin-Orbit,Spin-Spin,Magnetic field MRCI
   Miquel Garcia          : C-PCM and meta-GGA Hessian, CCSD/C-PCM, Gaussian charge scheme
   Tiago L. C. Gouveia    : GS-ROHF, GS-ROCIS
   Yang Guo               : DLPNO-NEVPT2, F12-NEVPT2, CIM, IAO-localization
   Andreas Hansen         : Spin unrestricted coupled pair/coupled cluster methods
   Ingolf Harden          : AUTO-CI MPn and infrastructure 
   Benjamin Helmich-Paris : MC-RPA, TRAH-(SCF,CASSCF), AVAS, COSX integrals, SCF dyn. polar.
   Lee Huntington         : MR-EOM, pCC
   Robert Izsak           : Overlap fitted RIJCOSX, COSX-SCS-MP3, EOM
   Riya Kayal             : Wick's Theorem for AUTO-CI, AUTO-CI UHF-CCSDT
   Emily Kempfer          : AUTO-CI, RHF CISDT and CCSDT
   Christian Kollmar      : KDIIS, OOCD, Brueckner-CCSD(T), CCSD density, CASPT2, CASPT2-K, improved NEVPT2
   Axel Koslowski         : Symmetry handling
   Simone Kossmann        : Meta GGA functionals, TD-DFT gradient, OOMP2, (MP2 Hessian; deprecated post 5.0)
   Lucas Lang             : DCDCAS
   Marvin Lechner         : AUTO-CI (C++ implementation), FIC-MRCC
   Spencer Leger          : CASSCF response
   Dagmar Lenk            : GEPOL surface, SMD, ORCA-2-JSON
   Dimitrios Liakos       : Extrapolation schemes; Compound Job, initial MDCI parallelization
   Dimitrios Manganas     : Further ROCIS development; embedding schemes. LFT, Crystal Embedding
   Dimitrios Pantazis     : SARC Basis sets
   Anastasios Papadopoulos: AUTO-CI, single reference methods and gradients
   Taras Petrenko         : pre 6.0 DFT Hessian and TD-DFT gradient, (ASA, deprecated), ECA, 1-Electron XAS/XES, NRVS
   Peter Pinski           : DLPNO-MP2, DLPNO-MP2 Gradient
   Christoph Reimann      : Effective Core Potentials
   Marius Retegan         : Local ZFS, SOC
   Christoph Riplinger    : Optimizer, TS searches, QM/MM, DLPNO-CCSD(T), (RO)-DLPNO pert. Triples
   Michael Roemelt        : Original ROCIS implementation
   Masaaki Saitow         : Open-shell DLPNO-CCSD energy and density
   Barbara Sandhoefer     : DKH picture change effects
   Kantharuban Sivalingam : CASSCF convergence/infrastructure, NEVPT2 and variants, FIC-MRCI
   Bernardo de Souza      : ESD, SOC TD-DFT
   Georgi Stoychev        : AutoAux, RI-MP2 NMR, DLPNO-MP2 response, X2C
   Van Anh Tran           : RI-MP2 g-tensors
   Willem Van den Heuvel  : Paramagnetic NMR
   Zikuan Wang            : NOTCH, Electric field optimization 
   Frank Wennmohs         : Technical directorship and infrastructure
   Hang Xu                : AUTO-CI-Response properties 


 We gratefully acknowledge several colleagues who have allowed us to
 interface, adapt or use parts of their codes:
   Stefan Grimme, W. Hujo, H. Kruse, P. Pracht,  : VdW corrections, initial TS optimization,
                  C. Bannwarth, S. Ehlert,         DFT functionals, gCP, sTDA/sTD-DF
                  L. Wittmann, M. Mueller
   Ed Valeev, F. Pavosevic, A. Kumar             : LibInt (2-el integral package), F12 methods
   Garnet Chan, S. Sharma, J. Yang, R. Olivares  : DMRG
   Ulf Ekstrom                                   : XCFun DFT Library
   Mihaly Kallay                                 : mrcc  (arbitrary order and MRCC methods)
   Frank Weinhold                                : gennbo (NPA and NBO analysis)
   Simon Mueller                                 : openCOSMO-RS
   Christopher J. Cramer and Donald G. Truhlar   : smd solvation model
   Lars Goerigk                                  : TD-DFT with DH, B97 family of functionals
   V. Asgeirsson, H. Jonsson                     : NEB implementation
   FAccTs GmbH                                   : IRC, NEB, NEB-TS, DLPNO-Multilevel, CI-OPT
                                                   MM, QMMM, 2- and 3-layer-ONIOM, Crystal-QMMM,
                                                   LR-CPCM, SF, NACMEs, symmetry and pop. for TD-DFT,
                                                   nearIR, NL-DFT gradient (VV10), updates on ESD,
                                                   ML-optimized integration grids, MBIS, APM,
                                                   GOAT, DOCKER, SOLVATOR, interface openCOSMO-RS
   S Lehtola, MJT Oliveira, MAL Marques          : LibXC Library
   Liviu Ungur et al                             : ANISO software


 Your calculation uses the libint2 library for the computation of 2-el integrals
 For citations please refer to: http://libint.valeyev.net

 Your ORCA version has been built with support for libXC version: 6.2.2
 For citations please refer to: https://libxc.gitlab.io

 This ORCA versions uses:
   CBLAS   interface :  Fast vector & matrix operations
   LAPACKE interface :  Fast linear algebra routines
   SCALAPACK package :  Parallel linear algebra routines
   Shared memory     :  Shared parallel matrices
   BLAS/LAPACK       :  OpenBLAS 0.3.27  USE64BITINT DYNAMIC_ARCH NO_AFFINITY Haswell SINGLE_THREADED
        Core in use  :  Haswell
   Copyright (c) 2011-2014, The OpenBLAS Project


================================================================================

----- Orbital basis set information -----
Your calculation utilizes the basis: aug-cc-pVDZ 
    H, B-Ne : Obtained from the ccRepo (grant-hill.group.shef.ac.uk/ccrepo) Feb. 2017
              R. A. Kendall, T. H. Dunning, Jr., R. J. Harrison, J. Chem. Phys. 96, 6796 (1992)
         He : Obtained from the ccRepo (grant-hill.group.shef.ac.uk/ccrepo) Feb. 2017
              D. E. Woon, T. H. Dunning, Jr., J. Chem. Phys. 100, 2975 (1994)
  Li-Be, Na : Obtained from the ccRepo (grant-hill.group.shef.ac.uk/ccrepo) Feb. 2017
              B. P. Prascher, D. E. Woon, K. A. Peterson, T. H. Dunning, Jr., A. K. Wilson, Theor. Chem. Acc. 128, 69 (2011)
         Mg : Obtained from the Peterson Research Group Website (tyr0.chem.wsu.edu/~kipeters) Feb. 2017
              B. P. Prascher, D. E. Woon, K. A. Peterson, T. H. Dunning, Jr., A. K. Wilson, Theor. Chem. Acc. 128, 69 (2011)
      Al-Ar : Obtained from the ccRepo (grant-hill.group.shef.ac.uk/ccrepo) Feb. 2017
              D. E. Woon, T. H. Dunning, Jr., J. Chem. Phys. 98, 1358 (1993)
      Sc-Zn : Obtained from the ccRepo (grant-hill.group.shef.ac.uk/ccrepo) Feb. 2017
              N. B. Balabanov, K. A. Peterson, J. Chem. Phys. 123, 064107 (2005)
              N. B. Balabanov, K. A. Peterson, J. Chem. Phys. 125, 074110 (2006)
      Ga-Kr : Obtained from the ccRepo (grant-hill.group.shef.ac.uk/ccrepo) Feb. 2017
              A. K. Wilson, D. E. Woon, K. A. Peterson, T. H. Dunning, Jr., J. Chem. Phys. 110, 7667 (1999)

----- AuxC basis set information -----
Your calculation utilizes the auxiliary basis: aug-cc-pVDZ/C 
  H-He, B, Ne, Al-Ar, Ga-Ge, Se-Br : Obtained from the EMSL Basis Set Exchange (bse.pnl.gov) Feb. 2017
                                     F. Weigend, A. Kohn, C. Hattig, J. Chem. Phys. 116, 3175 (2002)
                            Be, Mg : Obtained from the TURBOMOLE 7.0 basis set library
                                     C. Haettig, Phys. Chem. Chem. Phys. 7, 59 (2005)
                               C-F : Obtained from the EMSL Basis Set Exchange (bse.pnl.gov) Feb. 2017
                                     C. Haettig, Phys. Chem. Chem. Phys. 7, 59 (2005)
                                     F. Weigend, A. Kohn, C. Hattig, J. Chem. Phys. 116, 3175 (2002)
                                As : Obtained from the EMSL Basis Set Exchange (bse.pnl.gov) Feb. 2017
                                     C. Haettig, G. Schmitz, J. Kossmann, Phys. Chem. Chem. Phys. 14, 6549 (2012)
                                Kr : Obtained from the TURBOMOLE 7.0 basis set library
                                     F. Weigend, A. Kohn, C. Hattig, J. Chem. Phys. 116, 3175 (2002)
                                     S function revised in Sep. 2009

================================================================================
                                        WARNINGS
                       Please study these warnings very carefully!
================================================================================


WARNING: Post HF methods need fully converged wavefunctions
  ===> : Setting SCFConvForced true
         You can overwrite this default with %scf ConvForced false 


================================================================================
                                       INPUT FILE
================================================================================
NAME = AR3LD_3.2_4.0_4.4.inp
|  1> # MP2 scan of the potential energy curve for Ar...Ar
|  2>                 ! HFLD aug-cc-pvdz aug-cc-pvdz/C verytightscf
|  3>                 *xyz 0 1
|  4>                 Ar(1)	0    0	0.00000000000000
|  5>                 Ar(2)	4.4	0    0.00000000000000
|  6>                 Ar(3)	2.8545454545454545	2.802065353972652    0.00000000000000
|  7>                 **                         ****END OF INPUT****
================================================================================

                       ****************************
                       * Single Point Calculation *
                       ****************************

---------------------------------
CARTESIAN COORDINATES (ANGSTROEM)
---------------------------------
  Ar     0.000000    0.000000    0.000000
  Ar     4.400000    0.000000    0.000000
  Ar     2.854545    2.802065    0.000000

----------------------------
CARTESIAN COORDINATES (A.U.)
----------------------------
  NO LB      ZA    FRAG     MASS         X           Y           Z
   0 Ar   18.0000    1    39.948    0.000000    0.000000    0.000000
   1 Ar   18.0000    2    39.948    8.314795    0.000000    0.000000
   2 Ar   18.0000    3    39.948    5.394309    5.295136    0.000000

----------------------------------------------
CARTESIAN COORDINATES OF FRAGMENTS (ANGSTROEM)
----------------------------------------------

 FRAGMENT 1 
  Ar    0.000000    0.000000    0.000000

 FRAGMENT 2 
  Ar    4.400000    0.000000    0.000000

 FRAGMENT 3 
  Ar    2.854545    2.802065    0.000000

--------------------------------
INTERNAL COORDINATES (ANGSTROEM)
--------------------------------
 Ar     0   0   0     0.000000000000     0.00000000     0.00000000
 Ar     1   0   0     4.400000000000     0.00000000     0.00000000
 Ar     2   1   0     3.200000000000    61.12145350     0.00000000

---------------------------
INTERNAL COORDINATES (A.U.)
---------------------------
 Ar     0   0   0     0.000000000000     0.00000000     0.00000000
 Ar     1   0   0     8.314794989254     0.00000000     0.00000000
 Ar     2   1   0     6.047123628548    61.12145350     0.00000000

---------------------
BASIS SET INFORMATION
---------------------
There are 1 groups of distinct atoms

 Group   1 Type Ar  : 35s16p2d contracted to 5s4p2d pattern {11111111/7711/11}

Atom   0Ar   basis set group =>   1
Atom   1Ar   basis set group =>   1
Atom   2Ar   basis set group =>   1
---------------------------------
AUXILIARY/C BASIS SET INFORMATION
---------------------------------
There are 1 groups of distinct atoms

 Group   1 Type Ar  : 10s8p6d4f contracted to 10s8p6d4f pattern {1111111111/11111111/111111/1111}

Atom   0Ar   basis set group =>   1
Atom   1Ar   basis set group =>   1
Atom   2Ar   basis set group =>   1
------------------------------------------------------------------------------
                             ORCA STARTUP CALCULATIONS
------------------------------------------------------------------------------
------------------------------------------------------------------------------
                   ___                                                        
                  /   \      - P O W E R E D   B Y -                         
                 /     \                                                     
                 |  |  |   _    _      __       _____    __    __             
                 |  |  |  | |  | |    /  \     |  _  \  |  |  /  |          
                  \  \/   | |  | |   /    \    | | | |  |  | /  /          
                 / \  \   | |__| |  /  /\  \   | |_| |  |  |/  /          
                |  |  |   |  __  | /  /__\  \  |    /   |      \           
                |  |  |   | |  | | |   __   |  |    \   |  |\   \          
                \     /   | |  | | |  |  |  |  | |\  \  |  | \   \       
                 \___/    |_|  |_| |__|  |__|  |_| \__\ |__|  \__/        
                                                                              
                      - O R C A' S   B I G   F R I E N D -                    
                                      &                                       
                       - I N T E G R A L  F E E D E R -                       
                                                                              
 v1 FN, 2020, v2 2021, v3 2022-2024                                           
------------------------------------------------------------------------------


----------------------
SHARK INTEGRAL PACKAGE
----------------------

Number of atoms                             ...      3
Number of basis functions                   ...    150
Number of shells                            ...     72
Maximum angular momentum                    ...      2
Integral batch strategy                     ... SHARK/LIBINT Hybrid
RI-J (if used) integral strategy            ... SPLIT-RIJ (Revised 2003 algorithm where possible)
Printlevel                                  ...      1
Contraction scheme used                     ... PARTIAL GENERAL contraction
Prescreening option                         ... SCHWARTZ
   Thresh                                   ... 1.000e-12
   Tcut                                     ... 1.000e-14
   Tpresel                                  ... 1.000e-14 
Coulomb Range Separation                    ... NOT USED
Exchange Range Separation                   ... NOT USED
Multipole approximations                    ... NOT USED
Finite Nucleus Model                        ... NOT USED
CABS basis                                  ... NOT available
Auxiliary Coulomb fitting basis             ... NOT available
Auxiliary J/K fitting basis                 ... NOT available
Auxiliary Correlation fitting basis         ... AVAILABLE
   # of basis functions in Aux-C            ...    276
   # of shells in Aux-C                     ...     84
   Maximum angular momentum in Aux-C        ...      3
Auxiliary 'external' fitting basis          ... NOT available

Checking pre-screening integrals            ... done (  0.0 sec) Dimension = 72
Save PGC pre-screening integrals            ... done (  0.0 sec) Dimension = 72
Calculate PGC overlap integrals             ... done (  0.0 sec) Dimension = 33
Calculating pre-screening integrals (ORCA)  ... done (  0.2 sec) Dimension = 33
Check shell pair data                       ... done (  0.0 sec)
Shell pair information
Shell pair cut-off parameter TPreSel        ...   1.0e-14
Total number of shell pairs                 ...      2628
Shell pairs after pre-screening             ...      1703
Total number of primitive shell pairs       ...      2628
Primitive shell pairs kept                  ...      1703
          la=0 lb=0:    442 shell pairs
          la=1 lb=0:    643 shell pairs
          la=1 lb=1:    257 shell pairs
          la=2 lb=0:    196 shell pairs
          la=2 lb=1:    144 shell pairs
          la=2 lb=2:     21 shell pairs

Calculating one electron integrals          ... done (  0.0 sec)
Calculating RI/C V-Matrix + Cholesky decomp.... done (  0.0 sec)
Calculating Nuclear repulsion               ... done (  0.0 sec) ENN=    135.409231551130 Eh

Diagonalization of the overlap matrix:
Smallest eigenvalue                        ... 2.290e-02
Time for diagonalization                   ...    0.002 sec
Threshold for overlap eigenvalues          ... 1.000e-07
Number of eigenvalues below threshold      ... 0
Time for construction of square roots      ...    0.001 sec
Total time needed                          ...    0.003 sec

-------------------
DFT GRID GENERATION
-------------------

General Integration Accuracy     IntAcc      ... 4.388
Radial Grid Type                 RadialGrid  ... OptM3 with GC (2021)
Angular Grid (max. ang.)         AngularGrid ... 4 (Lebedev-302)
Angular grid pruning method      GridPruning ... 4 (adaptive)
Weight generation scheme         WeightScheme... mBecke (2022)
Basis function cutoff            BFCut       ... 1.0000e-12
Integration weight cutoff        WCut        ... 1.0000e-14
Partially contracted basis set               ... off
Rotationally invariant grid construction     ... off
Angular grids for H and He will be reduced by one unit

Total number of grid points                  ...    22090
Total number of batches                      ...      347
Average number of points per batch           ...       63
Average number of grid points per atom       ...     7363

---------------------
SHARK GRID GENERATION
---------------------

General Integration Accuracy     IntAcc      ... 4.388
Radial Grid Type                 RadialGrid  ... OptM3 with GC (2021)
Angular Grid (max. ang.)         AngularGrid ... 4 (Lebedev-302)
Angular grid pruning method      GridPruning ... 4 (adaptive)
Weight generation scheme         WeightScheme... mBecke (2022)
Basis function cutoff            BFCut       ... 1.0000e-12
Integration weight cutoff        WCut        ... 1.0000e-14
Partially contracted basis set               ... off
Rotationally invariant grid construction     ... off
Angular grids for H and He will be reduced by one unit
Core-polarized basis detected: some atoms will have their core
                               angular grid increased.
Steep s-basis detected: some atoms will have their radial
                        grid points doubled.

Total number of grid points                  ...    58033
Total number of batches                      ...      909
Average number of points per batch           ...       63
Average number of grid points per atom       ...    19344
Initializing property integral containers    ... done (  0.0 sec)

SHARK setup successfully completed in   1.9 seconds

Maximum memory used throughout the entire STARTUP-calculation: 27.4 MB
-------------------------------------------------------------------------------
                                 ORCA GUESS
                   Start orbitals & Density for SCF / CASSCF
-------------------------------------------------------------------------------

------------
SCF SETTINGS
------------
Hamiltonian:
 Ab initio Hamiltonian  Method          .... Hartree-Fock(GTOs)


General Settings:
 Integral files         IntName         .... AR3LD_3.2_4.0_4.4
 Hartree-Fock type      HFTyp           .... RHF
 Total Charge           Charge          ....    0
 Multiplicity           Mult            ....    1
 Number of Electrons    NEL             ....   54
 Basis Dimension        Dim             ....   81
 Nuclear Repulsion      ENuc            ....    135.4092315511 Eh

Convergence Acceleration:
 AO-DIIS                CNVDIIS         .... on
   Start iteration      DIISMaxIt       ....    12
   Startup error        DIISStart       ....  0.200000
   # of expansion vecs  DIISMaxEq       ....     5
   Bias factor          DIISBfac        ....   1.050
   Max. coefficient     DIISMaxC        ....  10.000
 MO-DIIS                CNVKDIIS        .... off
 Trust-Rad. Augm. Hess. CNVTRAH         .... auto
   Auto Start mean grad. ratio tolernc. ....  1.125000
   Auto Start start iteration           ....    50
   Auto Start num. interpolation iter.  ....    10
   Max. Number of Micro iterations      ....    24
   Max. Number of Macro iterations      .... Maxiter - #DIIS iter
   Number of Davidson start vectors     ....     2
   Converg. threshold    (grad. norm)   ....   2.000e-06
   Grad. Scal. Fac. for Micro threshold ....   0.100
   Minimum threshold for Micro iter.    ....   1.000e-02
   NR start threshold (gradient norm)   ....   1.000e-04
   Initial trust radius                 ....   0.400
   Minimum AH scaling param. (alpha)    ....   1.000
   Maximum AH scaling param. (alpha)    .... 1000.000
   Quad. conv. algorithm                .... NR
   White noise on init. David. guess    .... on
   Maximum white noise                  ....   0.010
   Pseudo random numbers                .... off
   Inactive MOs                         .... canonical
   Orbital update algorithm             .... Taylor
   Preconditioner                       .... Diag
   Full preconditioner red. dimension   ....   250
 SOSCF                  CNVSOSCF        .... on
   Start iteration      SOSCFMaxIt      ....   150
   Startup grad/error   SOSCFStart      ....  0.003300
   Hessian update       SOSCFHessUp     .... L-BFGS
 Level Shifting         CNVShift        .... on
   Level shift para.    LevelShift      ....    0.2500
   Turn off err/grad.   ShiftErr        ....    0.0010
 Zerner damping         CNVZerner       .... off
 Static damping         CNVDamp         .... on
   Fraction old density DampFac         ....    0.7000
   Max. Damping (<1)    DampMax         ....    0.9800
   Min. Damping (>=0)   DampMin         ....    0.0000
   Turn off err/grad.   DampErr         ....    0.1000

SCF Procedure:
 Maximum # iterations   MaxIter         ....   125
 SCF integral mode      SCFMode         .... Direct
   Integral package                     .... SHARK and LIBINT hybrid scheme
 Reset frequency        DirectResetFreq ....    20
 Integral Threshold     Thresh          ....  1.000e-12 Eh
 Primitive CutOff       TCut            ....  1.000e-14 Eh

Convergence Tolerance:
 Convergence Check Mode ConvCheckMode   .... Total+1el-Energy
 Convergence forced     ConvForced      .... 1
 Energy Change          TolE            ....  1.000e-09 Eh
 1-El. energy change                    ....  1.000e-06 Eh
 Orbital Gradient       TolG            ....  2.000e-06
 Orbital Rotation angle TolX            ....  2.000e-06
 DIIS Error             TolErr          ....  1.000e-08

------------------------------
INITIAL GUESS: MODEL POTENTIAL
------------------------------
Loading Hartree-Fock densities                     ... done
Calculating cut-offs                               ... done
Initializing the effective Hamiltonian             ... done
Setting up the integral package (SHARK)            ... done
Starting the Coulomb interaction                   ... done (   0.0 sec)
Making the grid                                    ... done (   0.1 sec)
Mapping shells                                     ... done
Starting the XC term evaluation                    ... done (   0.0 sec)
Transforming the Hamiltonian                       ... done (   0.0 sec)
Diagonalizing the Hamiltonian                      ... done (   0.0 sec)
Back transforming the eigenvectors                 ... done (   0.0 sec)
Now organizing SCF variables                       ... done
                      ------------------
                      INITIAL GUESS DONE (   0.1 sec)
                      ------------------
             **** ENERGY FILE WAS UPDATED (AR3LD_3.2_4.0_4.4.en.tmp) ****
Finished Guess after   0.2 sec
Maximum memory used throughout the entire GUESS-calculation: 6.6 MB

-------------------------------------------------------------------------------------------
                                      ORCA LEAN-SCF
                              memory conserving SCF solver
-------------------------------------------------------------------------------------------

----------------------------------------D-I-I-S--------------------------------------------
Iteration    Energy (Eh)           Delta-E    RMSDP     MaxDP     DIISErr   Damp  Time(sec)
-------------------------------------------------------------------------------------------
               ***  Starting incremental Fock matrix formation  ***
    1    -1580.3816609150121621     0.00e+00  1.05e-03  1.76e-02  9.29e-02  0.700   0.6
    2    -1580.3867968911679327    -5.14e-03  8.21e-04  1.28e-02  6.66e-02  0.700   0.6
                               ***Turning on AO-DIIS***
    3    -1580.3905258809272709    -3.73e-03  6.53e-04  9.39e-03  4.74e-02  0.700   0.6
    4    -1580.3932053123057813    -2.68e-03  1.60e-03  2.21e-02  3.33e-02  0.000   0.5
                              *** Initializing SOSCF ***
---------------------------------------S-O-S-C-F--------------------------------------
Iteration    Energy (Eh)           Delta-E    RMSDP     MaxDP     MaxGrad    Time(sec)
--------------------------------------------------------------------------------------
    5    -1580.3997364906106213    -6.53e-03  8.32e-05  1.02e-03  1.05e-03     0.6
               *** Restarting incremental Fock matrix formation ***
    6    -1580.3997450518427286    -8.56e-06  4.04e-05  5.50e-04  2.49e-04     0.5
    7    -1580.3997465995516905    -1.55e-06  1.48e-05  1.78e-04  5.93e-05     0.5
    8    -1580.3997466982361857    -9.87e-08  8.09e-07  1.41e-05  8.50e-06     0.5
    9    -1580.3997466987195821    -4.83e-10  1.52e-07  2.44e-06  1.28e-06     0.4
                 **** Energy Check signals convergence ****

               *****************************************************
               *                     SUCCESS                       *
               *           SCF CONVERGED AFTER   9 CYCLES          *
               *****************************************************

             **** ENERGY FILE WAS UPDATED (AR3LD_3.2_4.0_4.4.en.tmp) ****

----------------
TOTAL SCF ENERGY
----------------

Total Energy       :      -1580.39974669871958 Eh          -43004.86343 eV

Components:
Nuclear Repulsion  :        135.40923155112955 Eh            3684.67252 eV
Electronic Energy  :      -1715.80897824984913 Eh          -46689.53595 eV
One Electron Energy:      -2455.44082530590731 Eh          -66815.94171 eV
Two Electron Energy:        739.63184705605818 Eh           20126.40577 eV

Virial components:
Potential Energy   :      -3160.83904936067574 Eh          -86010.80324 eV
Kinetic Energy     :       1580.43930266195639 Eh           43005.93981 eV
Virial Ratio       :          1.99997497153913

---------------
SCF CONVERGENCE
---------------

  Last Energy change         ...    4.8340e-10  Tolerance :   1.0000e-09
  Last MAX-Density change    ...    2.4372e-06  Tolerance :   1.0000e-08
  Last RMS-Density change    ...    1.5242e-07  Tolerance :   1.0000e-09
  Last DIIS Error            ...    1.0479e-03  Tolerance :   1.0000e-08
  Last Orbital Gradient      ...    1.2798e-06  Tolerance :   2.0000e-06
  Last Orbital Rotation      ...    1.3979e-06  Tolerance :   2.0000e-06


----------------
ORBITAL ENERGIES
----------------

  NO   OCC          E(Eh)            E(eV) 
   0   2.0000    -118.610535     -3227.5567 
   1   2.0000    -118.608893     -3227.5121 
   2   2.0000    -118.608792     -3227.5093 
   3   2.0000     -12.322685      -335.3173 
   4   2.0000     -12.321265      -335.2787 
   5   2.0000     -12.321143      -335.2754 
   6   2.0000      -9.571275      -260.4476 
   7   2.0000      -9.571274      -260.4476 
   8   2.0000      -9.571272      -260.4475 
   9   2.0000      -9.569851      -260.4089 
  10   2.0000      -9.569842      -260.4087 
  11   2.0000      -9.569842      -260.4086 
  12   2.0000      -9.569738      -260.4058 
  13   2.0000      -9.569730      -260.4056 
  14   2.0000      -9.569727      -260.4055 
  15   2.0000      -1.281722       -34.8774 
  16   2.0000      -1.278799       -34.7979 
  17   2.0000      -1.275161       -34.6989 
  18   2.0000      -0.612970       -16.6798 
  19   2.0000      -0.598388       -16.2830 
  20   2.0000      -0.595219       -16.1967 
  21   2.0000      -0.592858       -16.1325 
  22   2.0000      -0.592071       -16.1111 
  23   2.0000      -0.589879       -16.0514 
  24   2.0000      -0.587985       -15.9999 
  25   2.0000      -0.586366       -15.9558 
  26   2.0000      -0.571283       -15.5454 
  27   0.0000       0.118502         3.2246 
  28   0.0000       0.127747         3.4762 
  29   0.0000       0.130068         3.5393 
  30   0.0000       0.132482         3.6050 
  31   0.0000       0.160304         4.3621 
  32   0.0000       0.169300         4.6069 
  33   0.0000       0.170636         4.6432 
  34   0.0000       0.177334         4.8255 
  35   0.0000       0.191081         5.1996 
  36   0.0000       0.203748         5.5443 
  37   0.0000       0.276778         7.5315 
*Only the first 10 virtual orbitals were printed.

                    ********************************
                    * MULLIKEN POPULATION ANALYSIS *
                    ********************************

-------------------------
MULLIKEN FRAGMENT CHARGES
-------------------------
 Fragment   0 :  -0.000299
 Fragment   1 :  -0.000287
 Fragment   2 :   0.000587
Sum of fragment charges:    0.0000000

---------------------------------
MULLIKEN FRAGMENT OVERLAP CHARGES
---------------------------------
                  0          1          2    
      0      17.997887   0.002702   0.002124
      1       0.002702  18.013274  -0.028674
      2       0.002124  -0.028674  18.012689

-----------------------
MULLIKEN ATOMIC CHARGES
-----------------------
   0 Ar:   -0.000299
   1 Ar:   -0.000287
   2 Ar:    0.000587
Sum of atomic charges:    0.0000000

--------------------------------
MULLIKEN REDUCED ORBITAL CHARGES
--------------------------------
  0 Ars       :     5.999774  s :     5.999774
      pz      :     3.999997  p :    12.000338
      px      :     4.000264
      py      :     4.000077
      dz2     :     0.000042  d :     0.000187
      dxz     :     0.000005
      dyz     :     0.000003
      dx2y2   :     0.000039
      dxy     :     0.000099

  1 Ars       :     5.998075  s :     5.998075
      pz      :     3.999906  p :    12.001846
      px      :     4.000497
      py      :     4.001442
      dz2     :     0.000038  d :     0.000366
      dxz     :     0.000023
      dyz     :     0.000072
      dx2y2   :     0.000129
      dxy     :     0.000105

  2 Ars       :     5.997583  s :     5.997583
      pz      :     3.999894  p :    12.001371
      px      :     4.000540
      py      :     4.000937
      dz2     :     0.000052  d :     0.000459
      dxz     :     0.000026
      dyz     :     0.000074
      dx2y2   :     0.000101
      dxy     :     0.000206



                     *******************************
                     * LOEWDIN POPULATION ANALYSIS *
                     *******************************

------------------------
LOEWDIN FRAGMENT CHARGES
------------------------
 Fragment   0 :   0.000905
 Fragment   1 :  -0.000005
 Fragment   2 :  -0.000900

----------------------------
LOEWDIN FRAGMENT BOND ORDERS
----------------------------
                  0          1          2    
      0      17.999095   0.011153   0.029188
      1       0.011153  18.000005   0.134985
      2       0.029188   0.134985  18.000900

----------------------
LOEWDIN ATOMIC CHARGES
----------------------
   0 Ar:    0.000905
   1 Ar:   -0.000005
   2 Ar:   -0.000900

-------------------------------
LOEWDIN REDUCED ORBITAL CHARGES
-------------------------------
  0 Ars       :     5.996656  s :     5.996656
      pz      :     3.999973  p :    12.002268
      px      :     4.001288
      py      :     4.001007
      dz2     :     0.000039  d :     0.000172
      dxz     :     0.000001
      dyz     :     0.000000
      dx2y2   :     0.000021
      dxy     :     0.000111

  1 Ars       :     5.985900  s :     5.985900
      pz      :     3.999793  p :    12.009192
      px      :     4.002794
      py      :     4.006604
      dz2     :     0.001140  d :     0.004913
      dxz     :     0.000048
      dyz     :     0.000154
      dx2y2   :     0.001107
      dxy     :     0.002464

  2 Ars       :     5.984601  s :     5.984601
      pz      :     3.999828  p :    12.011270
      px      :     4.002560
      py      :     4.008882
      dz2     :     0.001182  d :     0.005029
      dxz     :     0.000046
      dyz     :     0.000156
      dx2y2   :     0.001101
      dxy     :     0.002544



                      *****************************
                      * MAYER POPULATION ANALYSIS *
                      *****************************

  NA   - Mulliken gross atomic population
  ZA   - Total nuclear charge
  QA   - Mulliken gross atomic charge
  VA   - Mayer's total valence
  BVA  - Mayer's bonded valence
  FA   - Mayer's free valence

  ATOM       NA         ZA         QA         VA         BVA        FA
  0 Ar    18.0003    18.0000    -0.0003     0.0065     0.0065    -0.0000
  1 Ar    18.0003    18.0000    -0.0003    -0.0021    -0.0021    -0.0000
  2 Ar    17.9994    18.0000     0.0006    -0.0016    -0.0016    -0.0000

  Mayer bond orders larger than 0.100000
  => no bond orders to print

-------
TIMINGS
-------

Total SCF time: 0 days 0 hours 0 min 4 sec 

Total time                  ....       4.841 sec
Sum of individual times     ....       4.831 sec  ( 99.8%)

SCF preparation             ....       0.047 sec  (  1.0%)
Fock matrix formation       ....       4.753 sec  ( 98.2%)
  Startup                   ....       0.001 sec  (  0.0% of F)
  Coulomb+Exchange Fock     ....       4.748 sec  ( 99.9% of F)
Diagonalization             ....       0.000 sec  (  0.0%)
Density matrix formation    ....       0.004 sec  (  0.1%)
Total Energy calculation    ....       0.001 sec  (  0.0%)
Population analysis         ....       0.004 sec  (  0.1%)
Orbital Transformation      ....       0.004 sec  (  0.1%)
Orbital Orthonormalization  ....       0.000 sec  (  0.0%)
DIIS solution               ....       0.013 sec  (  0.3%)
SOSCF solution              ....       0.004 sec  (  0.1%)
Finished LeanSCF after   4.8 sec

Maximum memory used throughout the entire LEANSCF-calculation: 8.6 MB

------------------------------------------------------------------------------
                         ORCA PROPERTY INTEGRAL CALCULATIONS
------------------------------------------------------------------------------

GBWName                                   ... AR3LD_3.2_4.0_4.4.gbw
Number of atoms                           ...      3
Number of basis functions                 ...    150
Max core memory                           ...   1024 MB

Dipole integrals                          ... YES
Quadrupole integrals                      ...  NO
Linear momentum integrals                 ... YES
Angular momentum integrals                ... YES
Higher moments length integrals           ...  NO
Higher moments velocity integrals         ...  NO
Kinetic energy integrals                  ...  NO
GIAO right hand sides                     ...  NO
GIAO dipole derivative integrals          ...  NO
SOC integrals                             ...  NO
EPR diamagnetic integrals (GIAO)          ...  NO
EPR gauge integrals                       ...  NO
Field gradient integrals                  ...  NO (   0 nuclei)
Spin-dipole/Fermi contact integrals       ...  NO (   0 nuclei)
Contact density integrals                 ...  NO (   0 nuclei)
Nucleus-orbit integrals                   ...  NO (   0 nuclei)
Geometric perturbations                   ...  NO (   3 nuclei)

Choice of electric origin   ... Center of mass
Position of electric origin ... (  4.5697,  1.7650,  0.0000) 
Choice of magnetic origin   ... GIAO
Position of magnetic origin ... (  0.0000,  0.0000,  0.0000) 

Calculating integrals                     ... Electric Dipole (Length)     done (  0.0 sec)
Calculating integrals                     ... Linear Momentum              done (  0.0 sec)
Calculating integrals                     ... Angular Momentum  (ElOri)    done (  0.0 sec)

Property integrals calculated in   0.0 sec

Maximum memory used throughout the entire PROPINT-calculation: 6.7 MB


--------------------------------------------------------------------------------
                             ORCA-MATRIX DRIVEN CI
--------------------------------------------------------------------------------


Wavefunction type
-----------------
Correlation treatment                      ...      CCSD     
Single excitations                         ... ON
Orbital optimization                       ... OFF
Calculation of Z vector                    ... OFF
Calculation of Brueckner orbitals          ... OFF
Perturbative triple excitations            ... OFF
Calculation of F12 correction              ... OFF
Frozen core treatment                      ... chemical core (30 el)
Reference Wavefunction                     ... RHF
  Internal Orbitals:    15 ...   26 ( 12 MO's/ 24 electrons)
  Virtual  Orbitals:    27 ...   80 ( 54 MO's              )
Number of AO's                             ...     81
Number of electrons                        ...     54
Number of correlated electrons             ...     24

Algorithmic settings
--------------------
Integral transformation                    ... All integrals via the RI transformation
K(C) Formation                             ... RI-DLPNO
   PNO-Integral Storage                    ... ON DISK
   PNO occupation number cut-off           ... 3.330e-07
   Singles PNO occupation number cut-off   ... 9.990e-09
   PNO Mulliken prescreening cut-off       ... 1.000e-03
   Domain cut-off (Mulliken population)    ... 1.000e-03
   PNO Normalization                       ...    1
Maximum number of iterations               ...        50
Convergence tolerance (max. residuum)      ... 1.000e-06
Level shift for amplitude update           ... 2.000e-01
Maximum number of DIIS vectors             ...         7
DIIS turned on at iteration                ...         0
Damping before turning on DIIS             ...     0.500
Damping after turning on DIIS              ...     0.000
Pair specific amplitude update             ... OFF
Natural orbital iterations                 ... OFF
Perturbative natural orbital generation    ... OFF
Printlevel                                 ... 2

Singles Fock matrix elements calculated using PNOs.

Memory handling:
----------------
Maximum memory for working arrays          ...    512 MB
Data storage in matrix containers          ... UNCOMPRESSED
Data type for integral storage             ... DOUBLE
In-Core Storage of quantities:
   Amplitudes+Sigma Vector      ... NO
   J+K operators                ... NO
   DIIS vectors                 ... NO
   3-external integrals         ... NO
   4-external integrals         ... NO

Localization treatment:
-----------------------
Localization option                        ...    2
Localization threshhold                    ... -1.0e+00
Using relative localization threshhold     ... 1.0e-08
Neglect threshold for strong pairs         ... 1.000e-05 Eh
Prescreening threshold for very weak pairs ... 1.000e-07 Eh
Using randomized seed for localization     ... on

Initializing the integral package          ... done
Localizing the valence orbitals
Localizing the valence orbitals
Localization sum:   223.911028234 
------------------------------------------------------------------------------
                           ORCA ORBITAL LOCALIZATION
------------------------------------------------------------------------------

Input orbitals are from                  ... AR3LD_3.2_4.0_4.4.proc0.gbw
Output orbitals are to                   ... AR3LD_3.2_4.0_4.4.proc0.loc
Max. number of iterations                ... 128
Localizations seeded randomly            ... on
Convergence tolerance                    ... 2.000e-07
Using relative localization threshhold   ... 1.000e-08
Threshold for strong local MOs           ... 9.500e-01
Threshold for bond MOs                   ... 8.500e-01
Operator                                 ... 0
Orbital range for localization           ... 15 to 26
Localization criterion                   ... FOSTER-BOYS
Doing the dipole integrals     ... o.k.
Entering Jacobi type localization:
Using Cholesky decomposition as initial guess.
Initial value of the localization sum :   217.125626
ITERATION   0 : L=  223.8847973819 DL=  6.76e+00 (MAX-T)=  45.000 
ITERATION   1 : L=  223.8915329819 DL=  6.74e-03 (MAX-T)=   2.476 
ITERATION   2 : L=  223.8918471005 DL=  3.14e-04 (MAX-T)=   0.364 
ITERATION   3 : L=  223.8921377294 DL=  2.91e-04 (MAX-T)=   0.337 
ITERATION   4 : L=  223.8923669358 DL=  2.29e-04 (MAX-T)=   0.258 
ITERATION   5 : L=  223.8926436267 DL=  2.77e-04 (MAX-T)=   0.365 
ITERATION   6 : L=  223.8930115489 DL=  3.68e-04 (MAX-T)=   0.397 
ITERATION   7 : L=  223.8932795237 DL=  2.68e-04 (MAX-T)=   0.364 
ITERATION   8 : L=  223.8936182040 DL=  3.39e-04 (MAX-T)=   0.292 
ITERATION   9 : L=  223.8939133481 DL=  2.95e-04 (MAX-T)=   0.330 
ITERATION  10 : L=  223.8940992042 DL=  1.86e-04 (MAX-T)=   0.317 
ITERATION  11 : L=  223.8945039850 DL=  4.05e-04 (MAX-T)=   0.351 
ITERATION  12 : L=  223.8949070161 DL=  4.03e-04 (MAX-T)=   0.344 
ITERATION  13 : L=  223.8952366327 DL=  3.30e-04 (MAX-T)=   0.312 
ITERATION  14 : L=  223.8955953308 DL=  3.59e-04 (MAX-T)=   0.359 
ITERATION  15 : L=  223.8959606566 DL=  3.65e-04 (MAX-T)=   0.356 
ITERATION  16 : L=  223.8962028339 DL=  2.42e-04 (MAX-T)=   0.335 
ITERATION  17 : L=  223.8967137866 DL=  5.11e-04 (MAX-T)=   0.368 
ITERATION  18 : L=  223.8971289445 DL=  4.15e-04 (MAX-T)=   0.355 
ITERATION  19 : L=  223.8974890334 DL=  3.60e-04 (MAX-T)=   0.326 
ITERATION  20 : L=  223.8979238472 DL=  4.35e-04 (MAX-T)=   0.407 
ITERATION  21 : L=  223.8982640554 DL=  3.40e-04 (MAX-T)=   0.358 
ITERATION  22 : L=  223.8985657466 DL=  3.02e-04 (MAX-T)=   0.378 
ITERATION  23 : L=  223.8989494450 DL=  3.84e-04 (MAX-T)=   0.383 
ITERATION  24 : L=  223.8993010359 DL=  3.52e-04 (MAX-T)=   0.323 
ITERATION  25 : L=  223.8997335141 DL=  4.32e-04 (MAX-T)=   0.383 
ITERATION  26 : L=  223.9000963823 DL=  3.63e-04 (MAX-T)=   0.348 
ITERATION  27 : L=  223.9003968582 DL=  3.00e-04 (MAX-T)=   0.392 
ITERATION  28 : L=  223.9007501138 DL=  3.53e-04 (MAX-T)=   0.408 
ITERATION  29 : L=  223.9010794129 DL=  3.29e-04 (MAX-T)=   0.353 
ITERATION  30 : L=  223.9014689939 DL=  3.90e-04 (MAX-T)=   0.328 
ITERATION  31 : L=  223.9018309258 DL=  3.62e-04 (MAX-T)=   0.406 
ITERATION  32 : L=  223.9021820013 DL=  3.51e-04 (MAX-T)=   0.397 
ITERATION  33 : L=  223.9026189546 DL=  4.37e-04 (MAX-T)=   0.398 
ITERATION  34 : L=  223.9029884850 DL=  3.70e-04 (MAX-T)=   0.360 
ITERATION  35 : L=  223.9033123756 DL=  3.24e-04 (MAX-T)=   0.369 
ITERATION  36 : L=  223.9037090815 DL=  3.97e-04 (MAX-T)=   0.304 
ITERATION  37 : L=  223.9040538002 DL=  3.45e-04 (MAX-T)=   0.377 
ITERATION  38 : L=  223.9043977920 DL=  3.44e-04 (MAX-T)=   0.392 
ITERATION  39 : L=  223.9046957874 DL=  2.98e-04 (MAX-T)=   0.346 
ITERATION  40 : L=  223.9049371006 DL=  2.41e-04 (MAX-T)=   0.364 
ITERATION  41 : L=  223.9052515713 DL=  3.14e-04 (MAX-T)=   0.423 
ITERATION  42 : L=  223.9055451366 DL=  2.94e-04 (MAX-T)=   0.302 
ITERATION  43 : L=  223.9058744449 DL=  3.29e-04 (MAX-T)=   0.380 
ITERATION  44 : L=  223.9061638258 DL=  2.89e-04 (MAX-T)=   0.388 
ITERATION  45 : L=  223.9064856940 DL=  3.22e-04 (MAX-T)=   0.346 
ITERATION  46 : L=  223.9067671008 DL=  2.81e-04 (MAX-T)=   0.315 
ITERATION  47 : L=  223.9070684084 DL=  3.01e-04 (MAX-T)=   0.351 
ITERATION  48 : L=  223.9073660981 DL=  2.98e-04 (MAX-T)=   0.362 
ITERATION  49 : L=  223.9075995643 DL=  2.33e-04 (MAX-T)=   0.314 
ITERATION  50 : L=  223.9078085513 DL=  2.09e-04 (MAX-T)=   0.329 
ITERATION  51 : L=  223.9080364323 DL=  2.28e-04 (MAX-T)=   0.284 
ITERATION  52 : L=  223.9082223641 DL=  1.86e-04 (MAX-T)=   0.334 
ITERATION  53 : L=  223.9084030472 DL=  1.81e-04 (MAX-T)=   0.260 
ITERATION  54 : L=  223.9086200441 DL=  2.17e-04 (MAX-T)=   0.300 
ITERATION  55 : L=  223.9087492203 DL=  1.29e-04 (MAX-T)=   0.253 
ITERATION  56 : L=  223.9088537452 DL=  1.05e-04 (MAX-T)=   0.302 
ITERATION  57 : L=  223.9089943531 DL=  1.41e-04 (MAX-T)=   0.288 
ITERATION  58 : L=  223.9091527774 DL=  1.58e-04 (MAX-T)=   0.306 
ITERATION  59 : L=  223.9092584437 DL=  1.06e-04 (MAX-T)=   0.304 
ITERATION  60 : L=  223.9094130429 DL=  1.55e-04 (MAX-T)=   0.268 
ITERATION  61 : L=  223.9095192073 DL=  1.06e-04 (MAX-T)=   0.232 
ITERATION  62 : L=  223.9096391692 DL=  1.20e-04 (MAX-T)=   0.259 
ITERATION  63 : L=  223.9097448908 DL=  1.06e-04 (MAX-T)=   0.257 
ITERATION  64 : L=  223.9098423910 DL=  9.75e-05 (MAX-T)=   0.235 
ITERATION  65 : L=  223.9099516191 DL=  1.09e-04 (MAX-T)=   0.184 
ITERATION  66 : L=  223.9100393961 DL=  8.78e-05 (MAX-T)=   0.233 
ITERATION  67 : L=  223.9101110115 DL=  7.16e-05 (MAX-T)=   0.229 
ITERATION  68 : L=  223.9101926081 DL=  8.16e-05 (MAX-T)=   0.184 
ITERATION  69 : L=  223.9102607855 DL=  6.82e-05 (MAX-T)=   0.188 
ITERATION  70 : L=  223.9103231371 DL=  6.24e-05 (MAX-T)=   0.182 
ITERATION  71 : L=  223.9103835418 DL=  6.04e-05 (MAX-T)=   0.170 
ITERATION  72 : L=  223.9104419519 DL=  5.84e-05 (MAX-T)=   0.145 
ITERATION  73 : L=  223.9104960686 DL=  5.41e-05 (MAX-T)=   0.145 
ITERATION  74 : L=  223.9105482949 DL=  5.22e-05 (MAX-T)=   0.133 
ITERATION  75 : L=  223.9105939819 DL=  4.57e-05 (MAX-T)=   0.142 
ITERATION  76 : L=  223.9106329678 DL=  3.90e-05 (MAX-T)=   0.151 
ITERATION  77 : L=  223.9106648375 DL=  3.19e-05 (MAX-T)=   0.141 
ITERATION  78 : L=  223.9106898144 DL=  2.50e-05 (MAX-T)=   0.151 
ITERATION  79 : L=  223.9107210623 DL=  3.12e-05 (MAX-T)=   0.141 
ITERATION  80 : L=  223.9107496114 DL=  2.85e-05 (MAX-T)=   0.109 
ITERATION  81 : L=  223.9107697225 DL=  2.01e-05 (MAX-T)=   0.127 
ITERATION  82 : L=  223.9107947697 DL=  2.50e-05 (MAX-T)=   0.121 
ITERATION  83 : L=  223.9108189502 DL=  2.42e-05 (MAX-T)=   0.123 
ITERATION  84 : L=  223.9108373072 DL=  1.84e-05 (MAX-T)=   0.101 
ITERATION  85 : L=  223.9108531578 DL=  1.59e-05 (MAX-T)=   0.104 
ITERATION  86 : L=  223.9108715762 DL=  1.84e-05 (MAX-T)=   0.091 
ITERATION  87 : L=  223.9108866247 DL=  1.50e-05 (MAX-T)=   0.102 
ITERATION  88 : L=  223.9109013268 DL=  1.47e-05 (MAX-T)=   0.097 
ITERATION  89 : L=  223.9109131376 DL=  1.18e-05 (MAX-T)=   0.081 
ITERATION  90 : L=  223.9109284632 DL=  1.53e-05 (MAX-T)=   0.076 
ITERATION  91 : L=  223.9109368827 DL=  8.42e-06 (MAX-T)=   0.071 
ITERATION  92 : L=  223.9109480693 DL=  1.12e-05 (MAX-T)=   0.092 
ITERATION  93 : L=  223.9109565265 DL=  8.46e-06 (MAX-T)=   0.070 
ITERATION  94 : L=  223.9109638191 DL=  7.29e-06 (MAX-T)=   0.057 
ITERATION  95 : L=  223.9109702972 DL=  6.48e-06 (MAX-T)=   0.059 
ITERATION  96 : L=  223.9109785130 DL=  8.22e-06 (MAX-T)=   0.067 
ITERATION  97 : L=  223.9109839364 DL=  5.42e-06 (MAX-T)=   0.051 
ITERATION  98 : L=  223.9109905838 DL=  6.65e-06 (MAX-T)=   0.049 
ITERATION  99 : L=  223.9109966585 DL=  6.07e-06 (MAX-T)=   0.053 
ITERATION 100 : L=  223.9110027575 DL=  6.10e-06 (MAX-T)=   0.052 
ITERATION 101 : L=  223.9110058941 DL=  3.14e-06 (MAX-T)=   0.050 
ITERATION 102 : L=  223.9110095065 DL=  3.61e-06 (MAX-T)=   0.043 
ITERATION 103 : L=  223.9110126736 DL=  3.17e-06 (MAX-T)=   0.051 
ITERATION 104 : L=  223.9110159015 DL=  3.23e-06 (MAX-T)=   0.050 
ITERATION 105 : L=  223.9110194137 DL=  3.51e-06 (MAX-T)=   0.034 
ITERATION 106 : L=  223.9110231803 DL=  3.77e-06 (MAX-T)=   0.035 
ITERATION 107 : L=  223.9110264727 DL=  3.29e-06 (MAX-T)=   0.039 
ITERATION 108 : L=  223.9110282339 DL=  1.76e-06 (MAX-T)=   0.037 
LOCALIZATION SUM CONVERGED


--------------------------------------------------------------------------------
                    LOCALIZED MOLECULAR ORBITAL COMPOSITIONS
--------------------------------------------------------------------------------

The Mulliken populations for each LMO on each atom are computed
The LMO`s will be ordered according to atom index and type
  (A) Strongly localized MO`s have populations of >=0.950 on one atom
  (B) Two center bond orbitals have populations of >=0.850 on two atoms
  (C) Other MO`s are considered to be `delocalized`

FOUND  -  12 strongly local MO`s
       -   0 two center bond MO`s
       -   0 significantly delocalized MO`s

Rather strongly localized orbitals:
MO  26:   2Ar -   1.000135
MO  25:   2Ar -   1.000061
MO  24:   2Ar -   1.000862
MO  23:   2Ar -   1.000210
MO  22:   1Ar -   1.000184
MO  21:   1Ar -   1.000195
MO  20:   1Ar -   1.000213
MO  19:   1Ar -   1.000915
MO  18:   0Ar -   0.999616
MO  17:   0Ar -   0.999756
MO  16:   0Ar -   0.999994
MO  15:   0Ar -   0.999955
Localized MO's were stored in: AR3LD_3.2_4.0_4.4.proc0.loc

Localizing the core orbitals
Localization sum:   271.857276748 
------------------------------------------------------------------------------
                           ORCA ORBITAL LOCALIZATION
------------------------------------------------------------------------------

Input orbitals are from                  ... AR3LD_3.2_4.0_4.4.proc0.loc
Output orbitals are to                   ... AR3LD_3.2_4.0_4.4.proc0.loc
Max. number of iterations                ... 128
Localizations seeded randomly            ... on
Convergence tolerance                    ... 2.000e-07
Using relative localization threshhold   ... 1.000e-08
Threshold for strong local MOs           ... 9.500e-01
Threshold for bond MOs                   ... 8.500e-01
Operator                                 ... 0
Orbital range for localization           ... 0 to 14
Localization criterion                   ... FOSTER-BOYS
Doing the dipole integrals     ... o.k.
Entering Jacobi type localization:
Using Cholesky decomposition as initial guess.
Initial value of the localization sum :   271.400810
ITERATION   0 : L=  271.8436647499 DL=  4.43e-01 (MAX-T)=  45.000 
ITERATION   1 : L=  271.8571966557 DL=  1.35e-02 (MAX-T)=  19.022 
ITERATION   2 : L=  271.8572762639 DL=  7.96e-05 (MAX-T)=   1.138 
ITERATION   3 : L=  271.8572767484 DL=  4.85e-07 (MAX-T)=   0.082 
LOCALIZATION SUM CONVERGED


--------------------------------------------------------------------------------
                    LOCALIZED MOLECULAR ORBITAL COMPOSITIONS
--------------------------------------------------------------------------------

The Mulliken populations for each LMO on each atom are computed
The LMO`s will be ordered according to atom index and type
  (A) Strongly localized MO`s have populations of >=0.950 on one atom
  (B) Two center bond orbitals have populations of >=0.850 on two atoms
  (C) Other MO`s are considered to be `delocalized`

FOUND  -  15 strongly local MO`s
       -   0 two center bond MO`s
       -   0 significantly delocalized MO`s

Rather strongly localized orbitals:
MO  14:   2Ar -   1.000031
MO  13:   2Ar -   1.000015
MO  12:   2Ar -   1.000023
MO  11:   2Ar -   1.000000
MO  10:   2Ar -   1.000020
MO   9:   1Ar -   1.000011
MO   8:   1Ar -   1.000026
MO   7:   1Ar -   1.000000
MO   6:   1Ar -   1.000017
MO   5:   1Ar -   1.000022
MO   4:   0Ar -   1.000005
MO   3:   0Ar -   1.000000
MO   2:   0Ar -   1.000004
MO   1:   0Ar -   1.000007
MO   0:   0Ar -   1.000006
Localized MO's were stored in: AR3LD_3.2_4.0_4.4.proc0.loc

Warning: reference  - re-canonicalizations have been set to INT 1 VIRT 1
Warning: internal orbitals are localized - no re-canonicalization of internal orbitals
Warning: UsePNO is turned on - no re-canonicalization of internal and virtual orbitals
Fock densities were made 
Making Fock matrix and reference energy:

--------------------------
CLOSED-SHELL FOCK OPERATOR
--------------------------

Time needed for Fock operator              ...            0.978 sec
Reference energy                           ...  -1580.399746699

--------------
DLPNO SETTINGS (2015 fully linear scaling implementation)
--------------

TCutMKN:           1.000e-03
TCutPAO:           1.000e-03
TCutPNO:           3.330e-07
TCutPNOSingles:    9.990e-09
TCutEN:            9.700e-01
TCutPAOExt:        1.000e-01
TCutPairs:         1.000e-05
TCutPre:           1.000e-07
TCutOSV:           1.000e-06
TCutDOij:          1.000e-05
TCutDO:            1.000e-02
TCutC:             1.000e-04
TCutCPAO:          1.000e-03
TCutCMO:           1.000e-03
TScaleDOMP2PreScr: 2.000e+00
TScaleMKNMP2PreScr:1.000e+01
TScalePNOMP2PreScr:1.000e+00
PAO overlap thresh 1.000e-08
Using PNOs for Singles Fock computation
Use new domains
Use fully linear algorithm

--------------------------
Mulliken population of the LMOs            ... ok
Performing proximity check                 ... No problems found
Calculating differential overlap integrals ... ok

------------------------
PRESCREENING OF HF PAIRS
------------------------

   .... Finished loop over pairs

                  ============================================
                    30 of   78 PAIRS WERE SKIPPED as HF PAIRS
                  ============================================

Total time spent in skipping HF pairs                 ...     0.000 sec
--------------------------
ELECTRON PAIR PRESCREENING
--------------------------

Dipole-based pair screening          .... used

   TCutDOij = 1.000000e-05
   TCutPre  = 1.000000e-07
   .... Finished loop over pairs
Total time spent in the prescreening                  ...     0.000 sec
sum of pair energies estimated for screened out pairs ...       0.000000000000 Eh
Thresholds for map construction and integral transformation for crude MP2:
   TCutMKN                    ...     1.0e-02
   TCutDO                     ...     2.0e-02
   TCutPairs                  ...     1.0e-05
   TCutPNO_CrudeMP2           ...     3.3e-07
   TCutPNOSingles_CrudeMP2    ...     1.0e-08
--------------------------------
LOCAL RI TRANSFORMATION (IAVPAO)
--------------------------------

Orbital window:      15 to 26
Number of PAOs:      81
Basis functions:     81 (33 shells)
Aux. functions:     276 (84 shells)
Use SHARK:           on
Have SHARK:         yes

Processing maps (0.0 sec)
Average map sizes:
   Aux shells -> MOs              12.0
   Aux shells -> PAOs             81.0
   MOs        -> AO shells        31.2
   PAOs       -> AO shells        33.0

Calculating integrals (0.1 sec, 2.050 MB)
Sorting integrals (0.0 sec, 2.047 MB)
Total time for the integral transformation: 0.1 sec
--------------------------------
INITIAL GUESS AND PNO GENERATION
--------------------------------

Populations of internal orbitals onto Fragments:
  15:      1.000    0.000    0.000  assigned to fragment   1
  16:      1.000    0.000    0.000  assigned to fragment   1
  17:      1.000    0.000    0.000  assigned to fragment   1
  18:      1.000    0.000    0.000  assigned to fragment   1
  19:      0.000    1.001    0.001  assigned to fragment   2
  20:      0.000    1.000    0.000  assigned to fragment   2
  21:      0.000    1.000    0.000  assigned to fragment   2
  22:      0.000    1.000    0.000  assigned to fragment   2
  23:      0.000    0.000    1.000  assigned to fragment   3
  24:      0.000    0.001    1.001  assigned to fragment   3
  25:      0.000    0.000    1.000  assigned to fragment   3
  26:      0.000    0.000    1.000  assigned to fragment   3

Summary assignment:
   4 orbitals assigned to fragment   1
   4 orbitals assigned to fragment   2
   4 orbitals assigned to fragment   3

PNO truncation parameters                   .... 
    PAOOverlapThresh   =        1.000e-08

Pair selection                          .... 
  modified with fragment specific keywords
  Pairs will be selected according to these
  intra(inter)fragment cutoffs
  1 <-> 1
    Intrafragment pairs 1 <-> 1 neglected for CCSD
  1 <-> 2
    TCutPairs          =        1.000e-05
    TCutPNO            =        3.330e-07
    TCutMKN            =        1.000e-02
    TCutDO             =        2.000e-02
    TCutPNOSingles     =        9.990e-09
    TCutMP2Pairs       =        1.000e-06
  1 <-> 3
    TCutPairs          =        1.000e-05
    TCutPNO            =        3.330e-07
    TCutMKN            =        1.000e-02
    TCutDO             =        2.000e-02
    TCutPNOSingles     =        9.990e-09
    TCutMP2Pairs       =        1.000e-06
  2 <-> 2
    Intrafragment pairs 2 <-> 2 neglected for CCSD
  2 <-> 3
    TCutPairs          =        1.000e-05
    TCutPNO            =        3.330e-07
    TCutMKN            =        1.000e-02
    TCutDO             =        2.000e-02
    TCutPNOSingles     =        9.990e-09
    TCutMP2Pairs       =        1.000e-06
  3 <-> 3
    Intrafragment pairs 3 <-> 3 neglected for CCSD

Type of local MP2 treatment                 .... semi-local MP2
Strategy for PNO selection                  .... occupation number selection
Pair density normalization                  .... MP2 norm
Spin component scaling                      .... not used

   .... Finished loop over pairs
Making pair pair interaction lists          ... done

                       ===========================
                         42 OF   60 PAIRS ARE KEPT CCSD PAIRS
                          6 OF   60 PAIRS ARE KEPT MP2 PAIRS
                         12 OF   60 PAIRS ARE SKIPPED
                       ===========================

Total time spent in the initial guess                 ...     0.182 sec
SL-MP2 correlation energy (all non-screened pairs)    ...      -0.002281887092 Eh

Initial PNO correlation energy                        ...      -0.002174426817 Eh
sum of pair energies prescreened and skipped MP2 pairs...       0.000000000000 Eh
sum of pair energies of crude MP2 skipped pairs only  ...       0.000000000000 Eh
sum of MP2 pair energies for pairs that were not kept ...      -0.000048352663 Eh
sum of PNO error estimates for the kept pairs         ...      -0.000059107612 Eh
                                                          --------------------
sum of all corrections                                         -0.000107460275
Initial total correlation energy                               -0.002281887092
Thresholds for map construction and integral transformation for fine MP2 and CCSD(T) calculation:
   TCutMKN   ...     1.0e-03
   TCutDO    ...     1.0e-02
   TCutPairs ...     1.0e-05
   TCutCMO   ...     1.0e-03
   TCutCPAO  ...     1.0e-03

--------------------------------
LOCAL RI TRANSFORMATION (IAVPAO)
--------------------------------

Orbital window:      15 to 26
Number of PAOs:      81
Basis functions:     81 (33 shells)
Aux. functions:     276 (84 shells)
Use SHARK:           on
Have SHARK:         yes

Processing maps (0.0 sec)
Average map sizes:
   Aux shells -> MOs              12.0
   Aux shells -> PAOs             81.0
   MOs        -> AO shells        31.2
   PAOs       -> AO shells        33.0

Calculating integrals (0.1 sec, 2.050 MB)
Sorting integrals (0.0 sec, 2.047 MB)
Total time for the integral transformation: 0.1 sec
--------------------------------
INITIAL GUESS AND PNO GENERATION
--------------------------------

Populations of internal orbitals onto Fragments:
  15:      1.000    0.000    0.000  assigned to fragment   1
  16:      1.000    0.000    0.000  assigned to fragment   1
  17:      1.000    0.000    0.000  assigned to fragment   1
  18:      1.000    0.000    0.000  assigned to fragment   1
  19:      0.000    1.001    0.001  assigned to fragment   2
  20:      0.000    1.000    0.000  assigned to fragment   2
  21:      0.000    1.000    0.000  assigned to fragment   2
  22:      0.000    1.000    0.000  assigned to fragment   2
  23:      0.000    0.000    1.000  assigned to fragment   3
  24:      0.000    0.001    1.001  assigned to fragment   3
  25:      0.000    0.000    1.000  assigned to fragment   3
  26:      0.000    0.000    1.000  assigned to fragment   3

Summary assignment:
   4 orbitals assigned to fragment   1
   4 orbitals assigned to fragment   2
   4 orbitals assigned to fragment   3

PNO truncation parameters                   .... 
    PAOOverlapThresh   =        1.000e-08

Pair selection                          .... 
  modified with fragment specific keywords
  Pairs will be selected according to these
  intra(inter)fragment cutoffs
  1 <-> 1
    Intrafragment pairs 1 <-> 1 neglected for CCSD
  1 <-> 2
    TCutPairs          =        1.000e-05
    TCutPNO            =        3.330e-07
    TCutMKN            =        1.000e-03
    TCutDO             =        1.000e-02
    TCutPNOSingles     =        9.990e-09
    TCutMP2Pairs       =        1.000e-06
  1 <-> 3
    TCutPairs          =        1.000e-05
    TCutPNO            =        3.330e-07
    TCutMKN            =        1.000e-03
    TCutDO             =        1.000e-02
    TCutPNOSingles     =        9.990e-09
    TCutMP2Pairs       =        1.000e-06
  2 <-> 2
    Intrafragment pairs 2 <-> 2 neglected for CCSD
  2 <-> 3
    TCutPairs          =        1.000e-05
    TCutPNO            =        3.330e-07
    TCutMKN            =        1.000e-03
    TCutDO             =        1.000e-02
    TCutPNOSingles     =        9.990e-09
    TCutMP2Pairs       =        1.000e-06
  3 <-> 3
    Intrafragment pairs 3 <-> 3 neglected for CCSD

Type of local MP2 treatment                 .... semi-local MP2
Strategy for PNO selection                  .... occupation number selection
Pair density normalization                  .... MP2 norm
Spin component scaling                      .... not used

   .... Finished loop over pairs

 PNO Occupation Number Statistics: 
  | Av. % of trace(Dij) retained        ...  98.569491342319
  | sigma^2 in % of trace(Dij) retained ...   2.51e-01
  | Av. % of trace(Di) retained         ...  99.999917851210
  | sigma^2 in % of trace(Di) retained  ...   8.32e-10
 Distributions of % trace(Dij) recovered:
  |   [90.0, 99.0) ...    31 ( 73.8 % of all pairs)
  |   [99.0, 99.9) ...    11 ( 26.2 % of all pairs)
 Distributions of % trace(Di) recovered :
  |       >= 99.9  ...    12 (100.0 % of all I-pairs )

Making pair pair interaction lists          ... done

                       ===========================
                         42 OF   60 PAIRS ARE KEPT
                       ===========================

Total time spent in the initial guess                 ...     0.175 sec
SL-MP2 correlation energy (all non-screened pairs)    ...      -0.002281889608 Eh

Initial PNO correlation energy                        ...      -0.002174429146 Eh
sum of pair energies estimated for screened out pairs ...       0.000000000000 Eh
sum of MP2 pair energies for pairs that were not kept ...      -0.000048352663 Eh
sum of PNO error estimates for the kept pairs         ...      -0.000059107799 Eh
                                                          --------------------
sum of all corrections                                         -0.000107460462
Initial total correlation energy                               -0.002281889608
Thresholds for map construction and integral transformation for fine MP2 and CCSD(T) calculation:
   TCutMKN   ...     1.0e-03
   TCutDO    ...     1.0e-02
   TCutPairs ...     1.0e-05
   TCutCMO   ...     1.0e-03
   TCutCPAO  ...     1.0e-03

Time for aux screen maps:            0.000
Time for maps after fine MP2:            0.002
-----------------------------
LOCAL RI TRANSFORMATION (IJV)
-----------------------------

Orbital window:      15 to 26
Basis functions:     81 (33 shells)
Aux. functions:     276 (84 shells)
Use SHARK:           on

Processing maps (0.0 sec)
Average map sizes:
   Aux shells -> MOs(i)           12.0
   Aux shells -> MOs(j)           12.0
   MOs        -> AO shells        31.2

Calculating integrals NOTE: Switching SHARK to General Contraction for MDCI
      If that is not desired please turn off the PGCFlag in the input (%shark PGCFlag 0 end)
(0.5 sec, 0.306 MB)
Sorting integrals (0.0 sec, 0.303 MB)
Total time for the integral transformation: 0.5 sec
--------------------------------
LOCAL RI TRANSFORMATION (VABPAO)
--------------------------------

Number of PAOs:      81
Basis functions:     81 (33 shells)
Aux. functions:     276 (84 shells)
Use SHARK:           on

Processing maps (0.0 sec)
Average map sizes:
   Aux shells -> PAOs             81.0
   PAOs       -> AO shells        33.0

Calculating integrals NOTE: Switching SHARK to General Contraction for MDCI
      If that is not desired please turn off the PGCFlag in the input (%shark PGCFlag 0 end)
(0.7 sec, 13.819 MB)
Finished


-------------------------------------
Pair Pair Term precalculation with     
RI-(ij|mn) and (im|jn) transformation  
ON THE FLY                             
-------------------------------------

   IBatch   1 (of   1)              ... done (    0.362 sec)
Total EXT                           ...           0.362 sec

IAVPA Available = YES
VABPAO Available= YES
IJV Available   = YES
IJK Available   = NO
PNO3i Available = YES
PNO3j Available = YES
PNO4 Available  = YES
---------------------
RI-PNO TRANSFORMATION
---------------------

Total Number of PNOs                   ...   290
Average number of PNOs per pair        ...     6
Maximal number of PNOs per pair        ...    10
   #pairs with  1 -  5 PNOs   :    0
   #pairs with  6 - 10 PNOs   :   42
   #pairs with 11 - 15 PNOs   :    0
   #pairs with 16 - 20 PNOs   :    0
   #pairs with 21 - 25 PNOs   :    0
   #pairs with 26 - 30 PNOs   :    0
   #pairs with 31 - 35 PNOs   :    0
   #pairs with 36 - 40 PNOs   :    0
   #pairs with 41 - 45 PNOs   :    0
   #pairs with 46 - 50 PNOs   :    0

Generation of (ij|ab)[P] integrals            ... on
Generation of (ia|bc)[P],(ja|bc)[P] integrals ... on
Storage of 3 and 4 external integrals         ... on
Generation of ALL (ka|bc)[P] integrals        ... on
Keep RI integrals in memory                   ... off

Ibatch:  1 (of  1)
Starting 2-4 index PNO integral generation ... done

Timings:
Total PNO integral transformation time     ...          0.318 sec
Size of the 3-external file                ...         0 MB
Size of the 4-external file                ...         0 MB
Size of the IKJL file                      ...         0 MB
Size of the all 3-external file            ...         0 MB
Size of the 1-external file                ...         0 MB

Making pair/pair overlap matrices          ... done (    0.060 sec)
Size of the pair overlap file              ... 1 MB
Redoing the guess amplitudes               ... done (    0.000 sec)

-------------------------
FINAL STARTUP INFORMATION
-------------------------

E(0)                                       ...  -1580.399746699
E(SL-MP2)                                  ...     -0.002281890
E(SL-MP2) including corrections            ...     -0.002281890
Initial E(tot)                             ...  -1580.402028588
<T|T>                                      ...      0.000824909
Number of pairs included                   ... 42
Total number of pairs                      ... 78

------------------------------------------------
                  RHF COUPLED CLUSTER ITERATIONS
------------------------------------------------

Number of PNO amplitudes to be optimized   ...         2068
Number of non-PNO amplitudes               ...       122472
Untruncated number of regular amplitudes   ...       227448

Iter       E(tot)           E(Corr)          Delta-E          Residual     Time
  0  -1580.402028318     -0.002174159      0.000107731      0.000585475    0.07
                           *** Turning on DIIS ***
  1  -1580.401933121     -0.002078961      0.000095197      0.000123646    0.06
  2  -1580.401943066     -0.002088907     -0.000009945      0.000031090    0.06
  3  -1580.401943644     -0.002089485     -0.000000579      0.000010898    0.07
  4  -1580.401943853     -0.002089694     -0.000000209      0.000001420    0.07
  5  -1580.401943882     -0.002089723     -0.000000030      0.000000254    0.07
               --- The Coupled-Cluster iterations have converged ---

----------------------
COUPLED CLUSTER ENERGY
----------------------

E(0)                                       ...  -1580.399746699
E(CORR)(strong-pairs)                      ...     -0.002089723
E(CORR)(weak-pairs)                        ...     -0.000107460
E(CORR)(corrected)                         ...     -0.002197184
E(TOT)                                     ...  -1580.401943882
Singles Norm <S|S>**1/2                    ...      0.001368218  
T1 diagnostic                              ...      0.000279286  

------------------
LARGEST AMPLITUDES
------------------
  24-> 27  19-> 27       0.001854
  24-> 27  19-> 30       0.001365
  24-> 30  19-> 27       0.001332
  23-> 28  21-> 28       0.001287
  26-> 28  20-> 28       0.001276
  25-> 28  22-> 28       0.001236
  25-> 27  19-> 27       0.001191
  24-> 27  22-> 27       0.001173
  26-> 27  19-> 27       0.001169
  24-> 27  20-> 27       0.001166
  24-> 27  21-> 27       0.001142
  23-> 32  21-> 28       0.001092
  23-> 27  19-> 27       0.001089
  26-> 28  20-> 32       0.001077
  23-> 28  21-> 32       0.001067
  26-> 32  20-> 28       0.001056


 ===========================================================
         LOCAL ENERGY DECOMPOSITION FOR DLPNO-CC METHODS
 ===========================================================

Maximum Iterations for the Localization .. 600
Tolerance for the Localization          ..  1.00e-06
Number of fragments = 3
Fragment  1:  0
Fragment  2:  1
Fragment  3:  2

Populations of internal orbitals onto Fragments:
   0:      1.000    0.000    0.000  assigned to fragment   1
   1:      1.000    0.000    0.000  assigned to fragment   1
   2:      1.000    0.000    0.000  assigned to fragment   1
   3:      1.000    0.000    0.000  assigned to fragment   1
   4:      1.000    0.000    0.000  assigned to fragment   1
   5:      0.000    1.000    0.000  assigned to fragment   2
   6:      0.000    1.000    0.000  assigned to fragment   2
   7:      0.000    1.000    0.000  assigned to fragment   2
   8:      0.000    1.000    0.000  assigned to fragment   2
   9:      0.000    1.000    0.000  assigned to fragment   2
  10:      0.000    0.000    1.000  assigned to fragment   3
  11:      0.000    0.000    1.000  assigned to fragment   3
  12:      0.000    0.000    1.000  assigned to fragment   3
  13:      0.000    0.000    1.000  assigned to fragment   3
  14:      0.000    0.000    1.000  assigned to fragment   3
  15:      1.000    0.000    0.000  assigned to fragment   1
  16:      1.000    0.000    0.000  assigned to fragment   1
  17:      1.000    0.000    0.000  assigned to fragment   1
  18:      1.000    0.000    0.000  assigned to fragment   1
  19:      0.000    1.001    0.001  assigned to fragment   2
  20:      0.000    1.000    0.000  assigned to fragment   2
  21:      0.000    1.000    0.000  assigned to fragment   2
  22:      0.000    1.000    0.000  assigned to fragment   2
  23:      0.000    0.000    1.000  assigned to fragment   3
  24:      0.000    0.001    1.001  assigned to fragment   3
  25:      0.000    0.000    1.000  assigned to fragment   3
  26:      0.000    0.000    1.000  assigned to fragment   3

Summary assignment:
   9 orbitals assigned to fragment   1
   9 orbitals assigned to fragment   2
   9 orbitals assigned to fragment   3


--------------------------------
CORRELATION ENERGY DECOMPOSITION
--------------------------------


--------------------------------------------------
INTER- vs INTRA-FRAGMENT CORRELATION ENERGIES (Eh)
--------------------------------------------------

                                   Fragment   1            Fragment   2            Fragment   3            
                         ----------------------  ----------------------  ----------------------  
Intra strong pairs               0.000000000000         0.000000000000         0.000000000000  sum=        0.000000000000
Intra weak pairs                 0.000000000000         0.000000000000         0.000000000000  sum=        0.000000000000
Singles contribution             0.000000000010         0.000000000017        -0.000000000011  sum=        0.000000000017
                         ----------------------  ----------------------  ----------------------  
                                 0.000000000010         0.000000000017        -0.000000000011  sum=        0.000000000017


Interaction correlation for Fragments   2 and   1:
--------------------------------------------------
Inter strong pairs               -0.000160784729 (   -0.101 kcal/mol)
Inter weak pairs                 -0.000050353997 (   -0.032 kcal/mol)
                          ----------------------
Total interaction                -0.000211138726 (   -0.132 kcal/mol)

Interaction correlation for Fragments   3 and   1:
--------------------------------------------------
Inter strong pairs               -0.000395241556 (   -0.248 kcal/mol)
Inter weak pairs                 -0.000009420695 (   -0.006 kcal/mol)
                          ----------------------
Total interaction                -0.000404662251 (   -0.254 kcal/mol)
Interaction correlation for Fragments   3 and   2:
--------------------------------------------------
Inter strong pairs               -0.001533696870 (   -0.962 kcal/mol)
Inter weak pairs                 -0.000047685770 (   -0.030 kcal/mol)
                          ----------------------
Total interaction                -0.001581382641 (   -0.992 kcal/mol)



Sum of INTRA-fragment correlation energies  =         0.000000000017
Sum of INTER-fragment correlation energies  =        -0.002197183617
                                              ---------------------
Total correlation energy                    =        -0.002197183600

---------------------------------------------
DECOMPOSITION OF CCSD STRONG PAIRS INTO      
    DOUBLE EXCITATION TYPES (Eh)             
---------------------------------------------

Foster-Boys localization is used for localizing PNOs

Intra fragment contributions: 
INTRA Fragment 1                        0.000000000 
INTRA Fragment 2                        0.000000000 
INTRA Fragment 3                        0.000000000 

Charge transfer contributions: 
Charge Transfer 1 to 2                 -0.000000338 
Charge Transfer 1 to 3                 -0.000001351 
Charge Transfer 2 to 1                 -0.000000282 
Charge Transfer 2 to 3                 -0.000089093 
Charge Transfer 3 to 1                 -0.000001313 
Charge Transfer 3 to 2                 -0.000076360 

Dispersion contributions: 
Dispersion  2,1                        -0.000160165 
Dispersion  3,1                        -0.000392578 
Dispersion  3,2                        -0.001368244 

Singles contributions:                   
Singles energy                          0.000000000 
 
Delocalized contributions: 
Delocalized correlation                 0.000000000 

#Time for LED analysis ..       0.0 (sec)



--------------------------------------------------------------------------------
                                    TIMINGS
--------------------------------------------------------------------------------


Total execution time                   ...        4.719 sec

Localization of occupied MO's          ...        0.138 sec (  2.9%)
Fock Matrix Formation                  ...        0.978 sec ( 20.7%)
Global overlap, Fock, MKN matrices     ...        0.118 sec (  2.5%)
Differential overlap integrals         ...        0.235 sec (  5.0%)
Organizing maps                        ...        0.004 sec (  0.1%)
RI 3-index integral generations        ...        1.477 sec ( 31.3%)
RI-PNO integral transformation         ...        0.746 sec ( 15.8%)
Initial Guess                          ...        0.365 sec (  7.7%)
DIIS Solver                            ...        0.006 sec (  0.1%)
State Vector Update                    ...        0.000 sec (  0.0%)
Sigma-vector construction              ...        0.380 sec (  8.1%)
  <D|H|D>(0-ext)                       ...        0.046 sec ( 12.0% of sigma)
  <D|H|D>(2-ext)                       ...        0.062 sec ( 16.2% of sigma)
  <D|H|D>(4-ext)                       ...        0.003 sec (  0.9% of sigma)
  <D|H|D>(4-ext-corr)                  ...        0.011 sec (  2.9% of sigma)
  CCSD doubles correction              ...        0.008 sec (  2.2% of sigma)
  <S|H|S>                              ...        0.022 sec (  5.9% of sigma)
  <S|H|D>(1-ext)                       ...        0.027 sec (  7.0% of sigma)
  <S|H|D>(3-ext)                       ...        0.003 sec (  0.8% of sigma)
  Fock-dressing                        ...        0.117 sec ( 30.8% of sigma)
  Singles amplitudes                   ...        0.006 sec (  1.6% of sigma)
  (ik|jl)-dressing                     ...        0.025 sec (  6.5% of sigma)
  (ij|ab),(ia|jb)-dressing             ...        0.041 sec ( 10.7% of sigma)
Local Energy Decomposition             ...        0.020 sec (  0.4% of ALL)


Maximum memory used throughout the entire MDCI-calculation: 58.2 MB
----------------------------   ----------------
Inter-fragment dispersion       -0.002028447
----------------------------   ----------------


-------------------------   --------------------
FINAL SINGLE POINT ENERGY     -1580.401775146082 
-------------------------   --------------------


------------------------------------------------------------------------------
                              ORCA PROPERTY CALCULATIONS
------------------------------------------------------------------------------

GBWName                                 ... AR3LD_3.2_4.0_4.4.gbw
Number of atoms                         ...      3
Number of basis functions               ...    150
Max core memory                         ...   1024 MB

Electric properties:
Dipole moment                           ... YES
Quadrupole moment                       ...  NO
Static polarizability (Dipole/Dipole)   ...  NO
Static polarizability (Dipole/Quad.)    ...  NO
Static polarizability (Quad./Quad.)     ...  NO
Static polarizability (Velocity)        ...  NO

Atomic electric properties:
Dipole moment                           ...  NO
Quadrupole moment                       ...  NO
Static polarizability                   ...  NO

Choice of electric origin               ... Center of mass
Position of electric origin             ...     4.569701     1.765045     0.000000

General magnetic properties:
Magnetizability                         ...  NO

EPR properties:
g-Tensor (aka g-matrix)                 ...  NO
Zero-Field splitting spin-orbit         ...  NO
Zero-field splitting spin-spin          ...  NO
Hyperfine couplings                     ...  NO (   0 nuclei)
Quadrupole couplings                    ...  NO (   0 nuclei)
Contact density                         ...  NO (   0 nuclei)

NMR properties:
Chemical shifts                         ...  NO (   0 nuclei)
Spin-rotation constants                 ...  NO (   0 nuclei)
Spin-spin couplings                     ...  NO (   0 nuclei,    0 pairs)

Choice of magnetic origin               ... GIAO
Position of magnetic origin             ...     0.000000     0.000000     0.000000

Properties with geometric perturbations:
SCF Hessian                             ...  NO
IR spectrum                             ...  NO
VCD spectrum                            ...  NO
X-ray spectroscopy properties:
SCF XES/XAS/RIXS spectra                ...  NO


-------------
DIPOLE MOMENT
-------------

Method             : SCF
Type of density    : Electron Density
Multiplicity       :   1
Irrep              :   0
Energy             : -1580.3997466987195821 Eh
Relativity type    : 
Basis              : AO
                                X                 Y                 Z
Electronic contribution:     -0.000617383       0.000120003       0.000000000
Nuclear contribution   :      0.000000000       0.000000000       0.000000000
                        -----------------------------------------
Total Dipole Moment    :     -0.000617383       0.000120003       0.000000000
                        -----------------------------------------
Magnitude (a.u.)       :      0.000628937
Magnitude (Debye)      :      0.001598631



--------------------
Rotational spectrum 
--------------------
 
Rotational constants in cm-1:             0.085474             0.041118             0.027762 
Rotational constants in MHz :          2562.437851          1232.682316           832.298237 

Dipole components along the rotational axes: 
x,y,z [a.u.] :     0.000572     0.000262     0.000000 
x,y,z [Debye]:     0.001453     0.000667     0.000000 

 

Dipole moment calculation done in   0.0 sec 

Maximum memory used throughout the entire PROP-calculation: 6.8 MB

--------------------------------
SUGGESTED CITATIONS FOR THIS RUN
--------------------------------

Below you find a list of papers that are relevant to this ORCA run
We neither can nor want to force you to cite these papers, but we appreciate if you do
You receive ORCA, which is the product of decades of hard work by many enthusiastic individuals, for free
The only thing we kindly ask in return is that you cite our papers,
We deeply appreciate it, if you show your appreciation for ORCA by not just citing the generic ORCA reference.

Please note that relegating all ORCA citations to the supporting information does *not* help us.
SI sections are not indexed - citations you put there will not count into any citation statistics
But we need these citations in order to attract the funding resources that allow us to do what we are doing

Therefore, if you are a happy ORCA user, please consider citing a few of the papers listed below in the main body of your paper

In addition to the list printed below, the program has created the file AR3LD_3.2_4.0_4.4.bibtex that contains the list in bibtex format
You can import this file easily into all common literature databanks and citation aid programs


List of essential papers. We consider these as the minimum necessary citations

  1. Neese,F.
     Software update: the ORCA program system, version 5.0
     WIRES Comput. Molec. Sci., 2022 12(1)e1606
     doi.org/10.1002/wcms.1606

List of papers to cite with high priority. The work reported in these papers was absolutely
necessary for this run to complete.
Our perspective: the developers of density functionals and basis sets usually get cited in chemistry papers
Good! But without the algorithms to do something with them, the functionals or basis sets would not do anything.
Hence, in our opinion, the algorithm design and method developments papers are equally worthy of getting cited

  1. Neese,F.; Hansen,A.; Liakos,D.G.
     Efficient and accurate approximations to the local coupled cluster singles doubles method using a truncated pair natural orbital basis
     J. Chem. Phys., 2009 131 064103
     doi.org/10.1063/1.3173827
  2. Neese,F.; Wennmohs,F.; Hansen,A.
     Efficient and accurate local approximations to coupled-electron pair approaches: An attempt to revive the pair natural orbital method
     J. Chem. Phys., 2009 130 114108
     doi.org/10.1063/1.3086717
  3. Riplinger,C.; Neese,F.
     An efficient and near linear scaling pair natural orbital based local coupled cluster method
     J. Chem. Phys., 2013 138(3)Art. No. 034106
     doi.org/10.1063/1.4773581
  4. Datta,D.; Kossmann,S.; Neese,F.
     Analytic energy derivatives for the calculation of the first-order molecular properties using the domain-based local pair-natural orbital coupled-cluster theory
     J. Chem. Phys., 2016 145 
     doi.org/10.1063/1.4962369
  5. Riplinger,C.; Pinski,P.; Becker,U.; Valeev,E.F.; Neese,F.
     Sparse maps-A systematic infrastructure for reduced-scaling electronic structure methods. II. Linear scaling domain based pair natural orbital coupled cluster theory
     J. Chem. Phys., 2016 144 
     doi.org/10.1063/1.4939030
  6. Schneider,W.B.; Bistoni,G.; Sparta,M.; Saitow,M.; Riplinger,C.; Auer,A.A.; Neese,F.
     Decomposition of Intermolecular Interaction Energies within the Local Pair Natural Orbital Coupled Cluster Framework
     J. Theo. Comp. Chem., 2016 12 4778-4792
     doi.org/10.1021/acs.jctc.6b00523
  7. Bistoni,G.; Riplinger,C.; Minenkov,Y.; Cavallo,L.; Auer,A.A.; Neese,F.
     Treating Subvalence Correlation Effects in Domain Based Pair Natural Orbital Coupled Cluster Calculations: An Out-of-the-Box Approach
     J. Theo. Comp. Chem., 2017 13 3220-3227
     doi.org/10.1021/acs.jctc.7b00352
  8. Altun,A.; Neese,F.; Bistoni,G.
     HFLD: A Nonempirical London Dispersion-Corrected Hartree-Fock Method for the Quantification and Analysis of Noncovalent Interaction Energies of Large Molecular Systems
     J. Chem. Theory Comput., 2019 15 5894-5907
     doi.org/10.1021/acs.jctc.9b00425
  9. Neese,F.
     The SHARK Integral Generation and Digestion System
     J. Comp. Chem., 2022  1-16
     doi.org/10.1002/jcc.26942
 10. Altun,A.; Neese,F.; Bistoni,G.
     Open-Shell Variant of the London Dispersion-Corrected Hartree–Fock Method (HFLD) for the Quantification and Analysis of Noncovalent Interaction Energies
     J. Chem. Theory Comput., 2022 XX XXXX-XXXX
     doi.org/10.1021/acs.jctc.1c01295

List of suggested additional citations. These are papers that are important in the 'surrounding' of 
of this run, or papers that preceded the highly important papers. If you like your results we are grateful for a citation.

  1. Neese,F.
     The ORCA program system
     WIRES Comput. Molec. Sci., 2012 2(1)73-78
     doi.org/10.1002/wcms.81
  2. Neese,F.
     Software update: the ORCA program system, version 4.0
     WIRES Comput. Molec. Sci., 2018 8(1)1-6
     doi.org/10.1002/wcms.1327
  3. Neese,F.; Wennmohs,F.; Becker,U.; Riplinger,C.
     The ORCA quantum chemistry program package
     J. Chem. Phys., 2020 152 Art. No. L224108
     doi.org/10.1063/5.0004608
  4. Bistoni,G.
     Finding chemical concepts in the Hilbert space: Coupled cluster analyses of noncovalent interactions
     WIRES Comput. Molec. Sci., 2020 10(3)e1442
     doi.org/10.1002/wcms.1442

List of optional additional citations

  1. Neese,F.
     Approximate second-order SCF convergence for spin unrestricted wavefunctions
     Chem. Phys. Lett., 2000 325(1-3)93-98
     doi.org/10.1016/s0009-2614(00)00662-x

Timings for individual modules:

Sum of individual times          ...       11.933 sec (=   0.199 min)
Startup calculation              ...        1.915 sec (=   0.032 min)  16.1 %
SCF iterations                   ...        5.055 sec (=   0.084 min)  42.4 %
Property integrals               ...        0.083 sec (=   0.001 min)   0.7 %
Property calculations            ...        0.128 sec (=   0.002 min)   1.1 %
MDCI module                      ...        4.752 sec (=   0.079 min)  39.8 %
                             ****ORCA TERMINATED NORMALLY****
TOTAL RUN TIME: 0 days 0 hours 0 minutes 12 seconds 23 msec
