
                                 *****************
                                 * O   R   C   A *
                                 *****************

                                            #,                                       
                                            ###                                      
                                            ####                                     
                                            #####                                    
                                            ######                                   
                                           ########,                                 
                                     ,,################,,,,,                         
                               ,,#################################,,                 
                          ,,##########################################,,             
                       ,#########################################, ''#####,          
                    ,#############################################,,   '####,        
                  ,##################################################,,,,####,       
                ,###########''''           ''''###############################       
              ,#####''   ,,,,##########,,,,          '''####'''          '####       
            ,##' ,,,,###########################,,,                        '##       
           ' ,,###''''                  '''############,,,                           
         ,,##''                                '''############,,,,        ,,,,,,###''
      ,#''                                            '''#######################'''  
     '                                                          ''''####''''         
             ,#######,   #######,   ,#######,      ##                                
            ,#'     '#,  ##    ##  ,#'     '#,    #''#        ,####,   ,####,        
            ##       ##  ##   ,#'  ##            #'  '#       #'       #'  '#        
            ##       ##  #######   ##           ,######,      #####,   #    #        
            '#,     ,#'  ##    ##  '#,     ,#' ,#      #,     #,   #   #,  ,#        
             '#######'   ##     ##  '#######'  #'      '#     '####' # '####'        



                #########################################################
                #                        -***-                          #
                #          Department of theory and spectroscopy        #
                #                                                       #
                #                      Frank Neese                      #
                #                                                       #
                #     Directorship, Architecture, Infrastructure        #
                #                    SHARK, DRIVERS                     #
                #        Core code/Algorithms in most modules           #
                #                                                       #
                #        Max Planck Institute fuer Kohlenforschung      #
                #                Kaiser Wilhelm Platz 1                 #
                #                 D-45470 Muelheim/Ruhr                 #
                #                      Germany                          #
                #                                                       #
                #                  All rights reserved                  #
                #                        -***-                          #
                #########################################################


                         Program Version 6.0.0  -   RELEASE  -


 With contributions from (in alphabetic order):
   Daniel Aravena         : Magnetic Suceptibility
   Michael Atanasov       : Ab Initio Ligand Field Theory (pilot matlab implementation)
   Alexander A. Auer      : GIAO ZORA, VPT2 properties, NMR spectrum
   Ute Becker             : All parallelization in ORCA, NUMFREQ, NUMCALC
   Giovanni Bistoni       : ED, misc. LED, open-shell LED, HFLD
   Martin Brehm           : Molecular dynamics
   Dmytro Bykov           : pre 5.0 version of the SCF Hessian
   Marcos Casanova-Páez   : Triplet and SCS-CIS(D). UHF-(DLPNO)-IP/EA/STEOM-CCSD. UHF-CVS-IP/STEOM-CCSD
   Vijay G. Chilkuri      : MRCI spin determinant printing, contributions to CSF-ICE
   Pauline Colinet        : FMM embedding
   Dipayan Datta          : RHF DLPNO-CCSD density
   Achintya Kumar Dutta   : EOM-CC, STEOM-CC
   Nicolas Foglia         : Exact transition moments, OPA infrastructure, MCD improvements
   Dmitry Ganyushin       : Spin-Orbit,Spin-Spin,Magnetic field MRCI
   Miquel Garcia          : C-PCM and meta-GGA Hessian, CCSD/C-PCM, Gaussian charge scheme
   Tiago L. C. Gouveia    : GS-ROHF, GS-ROCIS
   Yang Guo               : DLPNO-NEVPT2, F12-NEVPT2, CIM, IAO-localization
   Andreas Hansen         : Spin unrestricted coupled pair/coupled cluster methods
   Ingolf Harden          : AUTO-CI MPn and infrastructure 
   Benjamin Helmich-Paris : MC-RPA, TRAH-(SCF,CASSCF), AVAS, COSX integrals, SCF dyn. polar.
   Lee Huntington         : MR-EOM, pCC
   Robert Izsak           : Overlap fitted RIJCOSX, COSX-SCS-MP3, EOM
   Riya Kayal             : Wick's Theorem for AUTO-CI, AUTO-CI UHF-CCSDT
   Emily Kempfer          : AUTO-CI, RHF CISDT and CCSDT
   Christian Kollmar      : KDIIS, OOCD, Brueckner-CCSD(T), CCSD density, CASPT2, CASPT2-K, improved NEVPT2
   Axel Koslowski         : Symmetry handling
   Simone Kossmann        : Meta GGA functionals, TD-DFT gradient, OOMP2, (MP2 Hessian; deprecated post 5.0)
   Lucas Lang             : DCDCAS
   Marvin Lechner         : AUTO-CI (C++ implementation), FIC-MRCC
   Spencer Leger          : CASSCF response
   Dagmar Lenk            : GEPOL surface, SMD, ORCA-2-JSON
   Dimitrios Liakos       : Extrapolation schemes; Compound Job, initial MDCI parallelization
   Dimitrios Manganas     : Further ROCIS development; embedding schemes. LFT, Crystal Embedding
   Dimitrios Pantazis     : SARC Basis sets
   Anastasios Papadopoulos: AUTO-CI, single reference methods and gradients
   Taras Petrenko         : pre 6.0 DFT Hessian and TD-DFT gradient, (ASA, deprecated), ECA, 1-Electron XAS/XES, NRVS
   Peter Pinski           : DLPNO-MP2, DLPNO-MP2 Gradient
   Christoph Reimann      : Effective Core Potentials
   Marius Retegan         : Local ZFS, SOC
   Christoph Riplinger    : Optimizer, TS searches, QM/MM, DLPNO-CCSD(T), (RO)-DLPNO pert. Triples
   Michael Roemelt        : Original ROCIS implementation
   Masaaki Saitow         : Open-shell DLPNO-CCSD energy and density
   Barbara Sandhoefer     : DKH picture change effects
   Kantharuban Sivalingam : CASSCF convergence/infrastructure, NEVPT2 and variants, FIC-MRCI
   Bernardo de Souza      : ESD, SOC TD-DFT
   Georgi Stoychev        : AutoAux, RI-MP2 NMR, DLPNO-MP2 response, X2C
   Van Anh Tran           : RI-MP2 g-tensors
   Willem Van den Heuvel  : Paramagnetic NMR
   Zikuan Wang            : NOTCH, Electric field optimization 
   Frank Wennmohs         : Technical directorship and infrastructure
   Hang Xu                : AUTO-CI-Response properties 


 We gratefully acknowledge several colleagues who have allowed us to
 interface, adapt or use parts of their codes:
   Stefan Grimme, W. Hujo, H. Kruse, P. Pracht,  : VdW corrections, initial TS optimization,
                  C. Bannwarth, S. Ehlert,         DFT functionals, gCP, sTDA/sTD-DF
                  L. Wittmann, M. Mueller
   Ed Valeev, F. Pavosevic, A. Kumar             : LibInt (2-el integral package), F12 methods
   Garnet Chan, S. Sharma, J. Yang, R. Olivares  : DMRG
   Ulf Ekstrom                                   : XCFun DFT Library
   Mihaly Kallay                                 : mrcc  (arbitrary order and MRCC methods)
   Frank Weinhold                                : gennbo (NPA and NBO analysis)
   Simon Mueller                                 : openCOSMO-RS
   Christopher J. Cramer and Donald G. Truhlar   : smd solvation model
   Lars Goerigk                                  : TD-DFT with DH, B97 family of functionals
   V. Asgeirsson, H. Jonsson                     : NEB implementation
   FAccTs GmbH                                   : IRC, NEB, NEB-TS, DLPNO-Multilevel, CI-OPT
                                                   MM, QMMM, 2- and 3-layer-ONIOM, Crystal-QMMM,
                                                   LR-CPCM, SF, NACMEs, symmetry and pop. for TD-DFT,
                                                   nearIR, NL-DFT gradient (VV10), updates on ESD,
                                                   ML-optimized integration grids, MBIS, APM,
                                                   GOAT, DOCKER, SOLVATOR, interface openCOSMO-RS
   S Lehtola, MJT Oliveira, MAL Marques          : LibXC Library
   Liviu Ungur et al                             : ANISO software


 Your calculation uses the libint2 library for the computation of 2-el integrals
 For citations please refer to: http://libint.valeyev.net

 Your ORCA version has been built with support for libXC version: 6.2.2
 For citations please refer to: https://libxc.gitlab.io

 This ORCA versions uses:
   CBLAS   interface :  Fast vector & matrix operations
   LAPACKE interface :  Fast linear algebra routines
   SCALAPACK package :  Parallel linear algebra routines
   Shared memory     :  Shared parallel matrices
   BLAS/LAPACK       :  OpenBLAS 0.3.27  USE64BITINT DYNAMIC_ARCH NO_AFFINITY Haswell SINGLE_THREADED
        Core in use  :  Haswell
   Copyright (c) 2011-2014, The OpenBLAS Project


================================================================================

----- Orbital basis set information -----
Your calculation utilizes the basis: aug-cc-pVDZ 
    H, B-Ne : Obtained from the ccRepo (grant-hill.group.shef.ac.uk/ccrepo) Feb. 2017
              R. A. Kendall, T. H. Dunning, Jr., R. J. Harrison, J. Chem. Phys. 96, 6796 (1992)
         He : Obtained from the ccRepo (grant-hill.group.shef.ac.uk/ccrepo) Feb. 2017
              D. E. Woon, T. H. Dunning, Jr., J. Chem. Phys. 100, 2975 (1994)
  Li-Be, Na : Obtained from the ccRepo (grant-hill.group.shef.ac.uk/ccrepo) Feb. 2017
              B. P. Prascher, D. E. Woon, K. A. Peterson, T. H. Dunning, Jr., A. K. Wilson, Theor. Chem. Acc. 128, 69 (2011)
         Mg : Obtained from the Peterson Research Group Website (tyr0.chem.wsu.edu/~kipeters) Feb. 2017
              B. P. Prascher, D. E. Woon, K. A. Peterson, T. H. Dunning, Jr., A. K. Wilson, Theor. Chem. Acc. 128, 69 (2011)
      Al-Ar : Obtained from the ccRepo (grant-hill.group.shef.ac.uk/ccrepo) Feb. 2017
              D. E. Woon, T. H. Dunning, Jr., J. Chem. Phys. 98, 1358 (1993)
      Sc-Zn : Obtained from the ccRepo (grant-hill.group.shef.ac.uk/ccrepo) Feb. 2017
              N. B. Balabanov, K. A. Peterson, J. Chem. Phys. 123, 064107 (2005)
              N. B. Balabanov, K. A. Peterson, J. Chem. Phys. 125, 074110 (2006)
      Ga-Kr : Obtained from the ccRepo (grant-hill.group.shef.ac.uk/ccrepo) Feb. 2017
              A. K. Wilson, D. E. Woon, K. A. Peterson, T. H. Dunning, Jr., J. Chem. Phys. 110, 7667 (1999)

----- AuxC basis set information -----
Your calculation utilizes the auxiliary basis: aug-cc-pVDZ/C 
  H-He, B, Ne, Al-Ar, Ga-Ge, Se-Br : Obtained from the EMSL Basis Set Exchange (bse.pnl.gov) Feb. 2017
                                     F. Weigend, A. Kohn, C. Hattig, J. Chem. Phys. 116, 3175 (2002)
                            Be, Mg : Obtained from the TURBOMOLE 7.0 basis set library
                                     C. Haettig, Phys. Chem. Chem. Phys. 7, 59 (2005)
                               C-F : Obtained from the EMSL Basis Set Exchange (bse.pnl.gov) Feb. 2017
                                     C. Haettig, Phys. Chem. Chem. Phys. 7, 59 (2005)
                                     F. Weigend, A. Kohn, C. Hattig, J. Chem. Phys. 116, 3175 (2002)
                                As : Obtained from the EMSL Basis Set Exchange (bse.pnl.gov) Feb. 2017
                                     C. Haettig, G. Schmitz, J. Kossmann, Phys. Chem. Chem. Phys. 14, 6549 (2012)
                                Kr : Obtained from the TURBOMOLE 7.0 basis set library
                                     F. Weigend, A. Kohn, C. Hattig, J. Chem. Phys. 116, 3175 (2002)
                                     S function revised in Sep. 2009

================================================================================
                                        WARNINGS
                       Please study these warnings very carefully!
================================================================================


WARNING: Post HF methods need fully converged wavefunctions
  ===> : Setting SCFConvForced true
         You can overwrite this default with %scf ConvForced false 


================================================================================
                                       INPUT FILE
================================================================================
NAME = AR3LD_2.8_3.6_4.0.inp
|  1> # MP2 scan of the potential energy curve for Ar...Ar
|  2>                 ! HFLD aug-cc-pvdz aug-cc-pvdz/C verytightscf
|  3>                 *xyz 0 1
|  4>                 Ar(1)	0    0	0.00000000000000
|  5>                 Ar(2)	4.0	0    0.00000000000000
|  6>                 Ar(3)	2.64	2.447529366524537    0.00000000000000
|  7>                 **                         ****END OF INPUT****
================================================================================

                       ****************************
                       * Single Point Calculation *
                       ****************************

---------------------------------
CARTESIAN COORDINATES (ANGSTROEM)
---------------------------------
  Ar     0.000000    0.000000    0.000000
  Ar     4.000000    0.000000    0.000000
  Ar     2.640000    2.447529    0.000000

----------------------------
CARTESIAN COORDINATES (A.U.)
----------------------------
  NO LB      ZA    FRAG     MASS         X           Y           Z
   0 Ar   18.0000    1    39.948    0.000000    0.000000    0.000000
   1 Ar   18.0000    2    39.948    7.558905    0.000000    0.000000
   2 Ar   18.0000    3    39.948    4.988877    4.625160    0.000000

----------------------------------------------
CARTESIAN COORDINATES OF FRAGMENTS (ANGSTROEM)
----------------------------------------------

 FRAGMENT 1 
  Ar    0.000000    0.000000    0.000000

 FRAGMENT 2 
  Ar    4.000000    0.000000    0.000000

 FRAGMENT 3 
  Ar    2.640000    2.447529    0.000000

--------------------------------
INTERNAL COORDINATES (ANGSTROEM)
--------------------------------
 Ar     0   0   0     0.000000000000     0.00000000     0.00000000
 Ar     1   0   0     4.000000000000     0.00000000     0.00000000
 Ar     2   1   0     2.800000000000    60.94071893     0.00000000

---------------------------
INTERNAL COORDINATES (A.U.)
---------------------------
 Ar     0   0   0     0.000000000000     0.00000000     0.00000000
 Ar     1   0   0     7.558904535685     0.00000000     0.00000000
 Ar     2   1   0     5.291233174980    60.94071893     0.00000000

---------------------
BASIS SET INFORMATION
---------------------
There are 1 groups of distinct atoms

 Group   1 Type Ar  : 35s16p2d contracted to 5s4p2d pattern {11111111/7711/11}

Atom   0Ar   basis set group =>   1
Atom   1Ar   basis set group =>   1
Atom   2Ar   basis set group =>   1
---------------------------------
AUXILIARY/C BASIS SET INFORMATION
---------------------------------
There are 1 groups of distinct atoms

 Group   1 Type Ar  : 10s8p6d4f contracted to 10s8p6d4f pattern {1111111111/11111111/111111/1111}

Atom   0Ar   basis set group =>   1
Atom   1Ar   basis set group =>   1
Atom   2Ar   basis set group =>   1
------------------------------------------------------------------------------
                             ORCA STARTUP CALCULATIONS
------------------------------------------------------------------------------
------------------------------------------------------------------------------
                   ___                                                        
                  /   \      - P O W E R E D   B Y -                         
                 /     \                                                     
                 |  |  |   _    _      __       _____    __    __             
                 |  |  |  | |  | |    /  \     |  _  \  |  |  /  |          
                  \  \/   | |  | |   /    \    | | | |  |  | /  /          
                 / \  \   | |__| |  /  /\  \   | |_| |  |  |/  /          
                |  |  |   |  __  | /  /__\  \  |    /   |      \           
                |  |  |   | |  | | |   __   |  |    \   |  |\   \          
                \     /   | |  | | |  |  |  |  | |\  \  |  | \   \       
                 \___/    |_|  |_| |__|  |__|  |_| \__\ |__|  \__/        
                                                                              
                      - O R C A' S   B I G   F R I E N D -                    
                                      &                                       
                       - I N T E G R A L  F E E D E R -                       
                                                                              
 v1 FN, 2020, v2 2021, v3 2022-2024                                           
------------------------------------------------------------------------------


----------------------
SHARK INTEGRAL PACKAGE
----------------------

Number of atoms                             ...      3
Number of basis functions                   ...    150
Number of shells                            ...     72
Maximum angular momentum                    ...      2
Integral batch strategy                     ... SHARK/LIBINT Hybrid
RI-J (if used) integral strategy            ... SPLIT-RIJ (Revised 2003 algorithm where possible)
Printlevel                                  ...      1
Contraction scheme used                     ... PARTIAL GENERAL contraction
Prescreening option                         ... SCHWARTZ
   Thresh                                   ... 1.000e-12
   Tcut                                     ... 1.000e-14
   Tpresel                                  ... 1.000e-14 
Coulomb Range Separation                    ... NOT USED
Exchange Range Separation                   ... NOT USED
Multipole approximations                    ... NOT USED
Finite Nucleus Model                        ... NOT USED
CABS basis                                  ... NOT available
Auxiliary Coulomb fitting basis             ... NOT available
Auxiliary J/K fitting basis                 ... NOT available
Auxiliary Correlation fitting basis         ... AVAILABLE
   # of basis functions in Aux-C            ...    276
   # of shells in Aux-C                     ...     84
   Maximum angular momentum in Aux-C        ...      3
Auxiliary 'external' fitting basis          ... NOT available

Checking pre-screening integrals            ... done (  0.0 sec) Dimension = 72
Save PGC pre-screening integrals            ... done (  0.0 sec) Dimension = 72
Calculate PGC overlap integrals             ... done (  0.0 sec) Dimension = 33
Calculating pre-screening integrals (ORCA)  ... done (  0.1 sec) Dimension = 33
Check shell pair data                       ... done (  0.0 sec)
Shell pair information
Shell pair cut-off parameter TPreSel        ...   1.0e-14
Total number of shell pairs                 ...      2628
Shell pairs after pre-screening             ...      1771
Total number of primitive shell pairs       ...      2628
Primitive shell pairs kept                  ...      1771
          la=0 lb=0:    452 shell pairs
          la=1 lb=0:    671 shell pairs
          la=1 lb=1:    269 shell pairs
          la=2 lb=0:    206 shell pairs
          la=2 lb=1:    152 shell pairs
          la=2 lb=2:     21 shell pairs

Calculating one electron integrals          ... done (  0.0 sec)
Calculating RI/C V-Matrix + Cholesky decomp.... done (  0.0 sec)
Calculating Nuclear repulsion               ... done (  0.0 sec) ENN=    151.722665294014 Eh

Diagonalization of the overlap matrix:
Smallest eigenvalue                        ... 1.673e-02
Time for diagonalization                   ...    0.001 sec
Threshold for overlap eigenvalues          ... 1.000e-07
Number of eigenvalues below threshold      ... 0
Time for construction of square roots      ...    0.000 sec
Total time needed                          ...    0.001 sec

-------------------
DFT GRID GENERATION
-------------------

General Integration Accuracy     IntAcc      ... 4.388
Radial Grid Type                 RadialGrid  ... OptM3 with GC (2021)
Angular Grid (max. ang.)         AngularGrid ... 4 (Lebedev-302)
Angular grid pruning method      GridPruning ... 4 (adaptive)
Weight generation scheme         WeightScheme... mBecke (2022)
Basis function cutoff            BFCut       ... 1.0000e-12
Integration weight cutoff        WCut        ... 1.0000e-14
Partially contracted basis set               ... off
Rotationally invariant grid construction     ... off
Angular grids for H and He will be reduced by one unit

Total number of grid points                  ...    22084
Total number of batches                      ...      347
Average number of points per batch           ...       63
Average number of grid points per atom       ...     7361

---------------------
SHARK GRID GENERATION
---------------------

General Integration Accuracy     IntAcc      ... 4.388
Radial Grid Type                 RadialGrid  ... OptM3 with GC (2021)
Angular Grid (max. ang.)         AngularGrid ... 4 (Lebedev-302)
Angular grid pruning method      GridPruning ... 4 (adaptive)
Weight generation scheme         WeightScheme... mBecke (2022)
Basis function cutoff            BFCut       ... 1.0000e-12
Integration weight cutoff        WCut        ... 1.0000e-14
Partially contracted basis set               ... off
Rotationally invariant grid construction     ... off
Angular grids for H and He will be reduced by one unit
Core-polarized basis detected: some atoms will have their core
                               angular grid increased.
Steep s-basis detected: some atoms will have their radial
                        grid points doubled.

Total number of grid points                  ...    58026
Total number of batches                      ...      908
Average number of points per batch           ...       63
Average number of grid points per atom       ...    19342
Initializing property integral containers    ... done (  0.0 sec)

SHARK setup successfully completed in   1.3 seconds

Maximum memory used throughout the entire STARTUP-calculation: 27.5 MB
-------------------------------------------------------------------------------
                                 ORCA GUESS
                   Start orbitals & Density for SCF / CASSCF
-------------------------------------------------------------------------------

------------
SCF SETTINGS
------------
Hamiltonian:
 Ab initio Hamiltonian  Method          .... Hartree-Fock(GTOs)


General Settings:
 Integral files         IntName         .... AR3LD_2.8_3.6_4.0
 Hartree-Fock type      HFTyp           .... RHF
 Total Charge           Charge          ....    0
 Multiplicity           Mult            ....    1
 Number of Electrons    NEL             ....   54
 Basis Dimension        Dim             ....   81
 Nuclear Repulsion      ENuc            ....    151.7226652940 Eh

Convergence Acceleration:
 AO-DIIS                CNVDIIS         .... on
   Start iteration      DIISMaxIt       ....    12
   Startup error        DIISStart       ....  0.200000
   # of expansion vecs  DIISMaxEq       ....     5
   Bias factor          DIISBfac        ....   1.050
   Max. coefficient     DIISMaxC        ....  10.000
 MO-DIIS                CNVKDIIS        .... off
 Trust-Rad. Augm. Hess. CNVTRAH         .... auto
   Auto Start mean grad. ratio tolernc. ....  1.125000
   Auto Start start iteration           ....    50
   Auto Start num. interpolation iter.  ....    10
   Max. Number of Micro iterations      ....    24
   Max. Number of Macro iterations      .... Maxiter - #DIIS iter
   Number of Davidson start vectors     ....     2
   Converg. threshold    (grad. norm)   ....   2.000e-06
   Grad. Scal. Fac. for Micro threshold ....   0.100
   Minimum threshold for Micro iter.    ....   1.000e-02
   NR start threshold (gradient norm)   ....   1.000e-04
   Initial trust radius                 ....   0.400
   Minimum AH scaling param. (alpha)    ....   1.000
   Maximum AH scaling param. (alpha)    .... 1000.000
   Quad. conv. algorithm                .... NR
   White noise on init. David. guess    .... on
   Maximum white noise                  ....   0.010
   Pseudo random numbers                .... off
   Inactive MOs                         .... canonical
   Orbital update algorithm             .... Taylor
   Preconditioner                       .... Diag
   Full preconditioner red. dimension   ....   250
 SOSCF                  CNVSOSCF        .... on
   Start iteration      SOSCFMaxIt      ....   150
   Startup grad/error   SOSCFStart      ....  0.003300
   Hessian update       SOSCFHessUp     .... L-BFGS
 Level Shifting         CNVShift        .... on
   Level shift para.    LevelShift      ....    0.2500
   Turn off err/grad.   ShiftErr        ....    0.0010
 Zerner damping         CNVZerner       .... off
 Static damping         CNVDamp         .... on
   Fraction old density DampFac         ....    0.7000
   Max. Damping (<1)    DampMax         ....    0.9800
   Min. Damping (>=0)   DampMin         ....    0.0000
   Turn off err/grad.   DampErr         ....    0.1000

SCF Procedure:
 Maximum # iterations   MaxIter         ....   125
 SCF integral mode      SCFMode         .... Direct
   Integral package                     .... SHARK and LIBINT hybrid scheme
 Reset frequency        DirectResetFreq ....    20
 Integral Threshold     Thresh          ....  1.000e-12 Eh
 Primitive CutOff       TCut            ....  1.000e-14 Eh

Convergence Tolerance:
 Convergence Check Mode ConvCheckMode   .... Total+1el-Energy
 Convergence forced     ConvForced      .... 1
 Energy Change          TolE            ....  1.000e-09 Eh
 1-El. energy change                    ....  1.000e-06 Eh
 Orbital Gradient       TolG            ....  2.000e-06
 Orbital Rotation angle TolX            ....  2.000e-06
 DIIS Error             TolErr          ....  1.000e-08

------------------------------
INITIAL GUESS: MODEL POTENTIAL
------------------------------
Loading Hartree-Fock densities                     ... done
Calculating cut-offs                               ... done
Initializing the effective Hamiltonian             ... done
Setting up the integral package (SHARK)            ... done
Starting the Coulomb interaction                   ... done (   0.0 sec)
Making the grid                                    ... done (   0.0 sec)
Mapping shells                                     ... done
Starting the XC term evaluation                    ... done (   0.0 sec)
Transforming the Hamiltonian                       ... done (   0.0 sec)
Diagonalizing the Hamiltonian                      ... done (   0.0 sec)
Back transforming the eigenvectors                 ... done (   0.0 sec)
Now organizing SCF variables                       ... done
                      ------------------
                      INITIAL GUESS DONE (   0.1 sec)
                      ------------------
             **** ENERGY FILE WAS UPDATED (AR3LD_2.8_3.6_4.0.en.tmp) ****
Finished Guess after   0.1 sec
Maximum memory used throughout the entire GUESS-calculation: 6.7 MB

-------------------------------------------------------------------------------------------
                                      ORCA LEAN-SCF
                              memory conserving SCF solver
-------------------------------------------------------------------------------------------

----------------------------------------D-I-I-S--------------------------------------------
Iteration    Energy (Eh)           Delta-E    RMSDP     MaxDP     DIISErr   Damp  Time(sec)
-------------------------------------------------------------------------------------------
               ***  Starting incremental Fock matrix formation  ***
    1    -1580.3701770082200255     0.00e+00  1.11e-03  1.79e-02  9.26e-02  0.700   0.6
    2    -1580.3755378506946272    -5.36e-03  8.75e-04  1.30e-02  6.63e-02  0.700   0.5
                               ***Turning on AO-DIIS***
    3    -1580.3794445249409364    -3.91e-03  6.99e-04  9.53e-03  4.72e-02  0.700   0.5
    4    -1580.3822588686018662    -2.81e-03  1.72e-03  2.24e-02  3.32e-02  0.000   0.5
                              *** Initializing SOSCF ***
---------------------------------------S-O-S-C-F--------------------------------------
Iteration    Energy (Eh)           Delta-E    RMSDP     MaxDP     MaxGrad    Time(sec)
--------------------------------------------------------------------------------------
    5    -1580.3891501774580775    -6.89e-03  8.80e-05  1.02e-03  1.06e-03     0.5
               *** Restarting incremental Fock matrix formation ***
    6    -1580.3891597571746388    -9.58e-06  4.19e-05  5.74e-04  2.17e-04     0.6
    7    -1580.3891614093065527    -1.65e-06  1.53e-05  1.88e-04  5.37e-05     0.5
    8    -1580.3891615149541394    -1.06e-07  8.48e-07  1.42e-05  7.96e-06     0.4
    9    -1580.3891615154698229    -5.16e-10  1.61e-07  2.77e-06  1.25e-06     0.4
                 **** Energy Check signals convergence ****

               *****************************************************
               *                     SUCCESS                       *
               *           SCF CONVERGED AFTER   9 CYCLES          *
               *****************************************************

             **** ENERGY FILE WAS UPDATED (AR3LD_2.8_3.6_4.0.en.tmp) ****

----------------
TOTAL SCF ENERGY
----------------

Total Energy       :      -1580.38916151546982 Eh          -43004.57540 eV

Components:
Nuclear Repulsion  :        151.72266529401432 Eh            4128.58362 eV
Electronic Energy  :      -1732.11182680948423 Eh          -47133.15901 eV
One Electron Energy:      -2488.10801245712901 Eh          -67704.86107 eV
Two Electron Energy:        755.99618564764478 Eh           20571.70206 eV

Virial components:
Potential Energy   :      -3160.91834225140337 Eh          -86012.96091 eV
Kinetic Energy     :       1580.52918073593332 Eh           43008.38551 eV
Virial Ratio       :          1.99991140991121

---------------
SCF CONVERGENCE
---------------

  Last Energy change         ...    5.1568e-10  Tolerance :   1.0000e-09
  Last MAX-Density change    ...    2.7742e-06  Tolerance :   1.0000e-08
  Last RMS-Density change    ...    1.6072e-07  Tolerance :   1.0000e-09
  Last DIIS Error            ...    1.0609e-03  Tolerance :   1.0000e-08
  Last Orbital Gradient      ...    1.2470e-06  Tolerance :   2.0000e-06
  Last Orbital Rotation      ...    1.5717e-06  Tolerance :   2.0000e-06


----------------
ORBITAL ENERGIES
----------------

  NO   OCC          E(Eh)            E(eV) 
   0   2.0000    -118.610362     -3227.5520 
   1   2.0000    -118.605665     -3227.4242 
   2   2.0000    -118.605235     -3227.4125 
   3   2.0000     -12.322547      -335.3136 
   4   2.0000     -12.318728      -335.2096 
   5   2.0000     -12.318327      -335.1987 
   6   2.0000      -9.571141      -260.4440 
   7   2.0000      -9.571140      -260.4439 
   8   2.0000      -9.571137      -260.4439 
   9   2.0000      -9.567321      -260.3400 
  10   2.0000      -9.567224      -260.3374 
  11   2.0000      -9.567222      -260.3373 
  12   2.0000      -9.566926      -260.3293 
  13   2.0000      -9.566829      -260.3267 
  14   2.0000      -9.566824      -260.3265 
  15   2.0000      -1.287918       -35.0460 
  16   2.0000      -1.278862       -34.7996 
  17   2.0000      -1.269557       -34.5464 
  18   2.0000      -0.633653       -17.2426 
  19   2.0000      -0.605982       -16.4896 
  20   2.0000      -0.599716       -16.3191 
  21   2.0000      -0.593573       -16.1519 
  22   2.0000      -0.592000       -16.1091 
  23   2.0000      -0.587672       -15.9914 
  24   2.0000      -0.582599       -15.8533 
  25   2.0000      -0.579604       -15.7718 
  26   2.0000      -0.550061       -14.9679 
  27   0.0000       0.115491         3.1427 
  28   0.0000       0.124294         3.3822 
  29   0.0000       0.133486         3.6323 
  30   0.0000       0.135183         3.6785 
  31   0.0000       0.164604         4.4791 
  32   0.0000       0.171671         4.6714 
  33   0.0000       0.173642         4.7250 
  34   0.0000       0.178698         4.8626 
  35   0.0000       0.201479         5.4825 
  36   0.0000       0.206630         5.6227 
  37   0.0000       0.289896         7.8885 
*Only the first 10 virtual orbitals were printed.

                    ********************************
                    * MULLIKEN POPULATION ANALYSIS *
                    ********************************

-------------------------
MULLIKEN FRAGMENT CHARGES
-------------------------
 Fragment   0 :  -0.000541
 Fragment   1 :  -0.000762
 Fragment   2 :   0.001302
Sum of fragment charges:   -0.0000000

---------------------------------
MULLIKEN FRAGMENT OVERLAP CHARGES
---------------------------------
                  0          1          2    
      0      18.000999   0.002939  -0.003857
      1       0.002939  18.061965  -0.125346
      2      -0.003857  -0.125346  18.063299

-----------------------
MULLIKEN ATOMIC CHARGES
-----------------------
   0 Ar:   -0.000541
   1 Ar:   -0.000762
   2 Ar:    0.001302
Sum of atomic charges:   -0.0000000

--------------------------------
MULLIKEN REDUCED ORBITAL CHARGES
--------------------------------
  0 Ars       :     5.999276  s :     5.999276
      pz      :     3.999978  p :    12.000889
      px      :     4.000624
      py      :     4.000287
      dz2     :     0.000070  d :     0.000375
      dxz     :     0.000022
      dyz     :     0.000014
      dx2y2   :     0.000116
      dxy     :     0.000153

  1 Ars       :     5.995482  s :     5.995482
      pz      :     3.999673  p :    12.003786
      px      :     4.001003
      py      :     4.003110
      dz2     :     0.000184  d :     0.001494
      dxz     :     0.000084
      dyz     :     0.000253
      dx2y2   :     0.000488
      dxy     :     0.000485

  2 Ars       :     5.993961  s :     5.993961
      pz      :     3.999618  p :    12.003133
      px      :     4.001242
      py      :     4.002273
      dz2     :     0.000168  d :     0.001603
      dxz     :     0.000095
      dyz     :     0.000263
      dx2y2   :     0.000406
      dxy     :     0.000672



                     *******************************
                     * LOEWDIN POPULATION ANALYSIS *
                     *******************************

------------------------
LOEWDIN FRAGMENT CHARGES
------------------------
 Fragment   0 :   0.002449
 Fragment   1 :  -0.000030
 Fragment   2 :  -0.002419

----------------------------
LOEWDIN FRAGMENT BOND ORDERS
----------------------------
                  0          1          2    
      0      17.997551   0.026144   0.061740
      1       0.026144  18.000030   0.286505
      2       0.061740   0.286505  18.002419

----------------------
LOEWDIN ATOMIC CHARGES
----------------------
   0 Ar:    0.002449
   1 Ar:   -0.000030
   2 Ar:   -0.002419

-------------------------------
LOEWDIN REDUCED ORBITAL CHARGES
-------------------------------
  0 Ars       :     5.991191  s :     5.991191
      pz      :     3.999891  p :    12.005352
      px      :     4.003358
      py      :     4.002103
      dz2     :     0.000226  d :     0.001008
      dxz     :     0.000008
      dyz     :     0.000009
      dx2y2   :     0.000116
      dxy     :     0.000650

  1 Ars       :     5.971697  s :     5.971697
      pz      :     3.998511  p :    12.004764
      px      :     4.002515
      py      :     4.003738
      dz2     :     0.005193  d :     0.023568
      dxz     :     0.000349
      dyz     :     0.001129
      dx2y2   :     0.005400
      dxy     :     0.011497

  2 Ars       :     5.969101  s :     5.969101
      pz      :     3.998603  p :    12.009007
      px      :     4.002023
      py      :     4.008381
      dz2     :     0.005426  d :     0.024312
      dxz     :     0.000355
      dyz     :     0.001145
      dx2y2   :     0.005361
      dxy     :     0.012026



                      *****************************
                      * MAYER POPULATION ANALYSIS *
                      *****************************

  NA   - Mulliken gross atomic population
  ZA   - Total nuclear charge
  QA   - Mulliken gross atomic charge
  VA   - Mayer's total valence
  BVA  - Mayer's bonded valence
  FA   - Mayer's free valence

  ATOM       NA         ZA         QA         VA         BVA        FA
  0 Ar    18.0005    18.0000    -0.0005     0.0056     0.0056    -0.0000
  1 Ar    18.0008    18.0000    -0.0008    -0.0240    -0.0240    -0.0000
  2 Ar    17.9987    18.0000     0.0013    -0.0263    -0.0263    -0.0000

  Mayer bond orders larger than 0.100000
  => no bond orders to print

-------
TIMINGS
-------

Total SCF time: 0 days 0 hours 0 min 4 sec 

Total time                  ....       4.491 sec
Sum of individual times     ....       4.484 sec  ( 99.8%)

SCF preparation             ....       0.052 sec  (  1.2%)
Fock matrix formation       ....       4.410 sec  ( 98.2%)
  Startup                   ....       0.001 sec  (  0.0% of F)
  Coulomb+Exchange Fock     ....       4.406 sec  ( 99.9% of F)
Diagonalization             ....       0.000 sec  (  0.0%)
Density matrix formation    ....       0.003 sec  (  0.1%)
Total Energy calculation    ....       0.001 sec  (  0.0%)
Population analysis         ....       0.002 sec  (  0.0%)
Orbital Transformation      ....       0.003 sec  (  0.1%)
Orbital Orthonormalization  ....       0.000 sec  (  0.0%)
DIIS solution               ....       0.009 sec  (  0.2%)
SOSCF solution              ....       0.004 sec  (  0.1%)
Finished LeanSCF after   4.5 sec

Maximum memory used throughout the entire LEANSCF-calculation: 8.7 MB

------------------------------------------------------------------------------
                         ORCA PROPERTY INTEGRAL CALCULATIONS
------------------------------------------------------------------------------

GBWName                                   ... AR3LD_2.8_3.6_4.0.gbw
Number of atoms                           ...      3
Number of basis functions                 ...    150
Max core memory                           ...   1024 MB

Dipole integrals                          ... YES
Quadrupole integrals                      ...  NO
Linear momentum integrals                 ... YES
Angular momentum integrals                ... YES
Higher moments length integrals           ...  NO
Higher moments velocity integrals         ...  NO
Kinetic energy integrals                  ...  NO
GIAO right hand sides                     ...  NO
GIAO dipole derivative integrals          ...  NO
SOC integrals                             ...  NO
EPR diamagnetic integrals (GIAO)          ...  NO
EPR gauge integrals                       ...  NO
Field gradient integrals                  ...  NO (   0 nuclei)
Spin-dipole/Fermi contact integrals       ...  NO (   0 nuclei)
Contact density integrals                 ...  NO (   0 nuclei)
Nucleus-orbit integrals                   ...  NO (   0 nuclei)
Geometric perturbations                   ...  NO (   3 nuclei)

Choice of electric origin   ... Center of mass
Position of electric origin ... (  4.1826,  1.5417,  0.0000) 
Choice of magnetic origin   ... GIAO
Position of magnetic origin ... (  0.0000,  0.0000,  0.0000) 

Calculating integrals                     ... Electric Dipole (Length)     done (  0.0 sec)
Calculating integrals                     ... Linear Momentum              done (  0.0 sec)
Calculating integrals                     ... Angular Momentum  (ElOri)    done (  0.0 sec)

Property integrals calculated in   0.0 sec

Maximum memory used throughout the entire PROPINT-calculation: 6.8 MB


--------------------------------------------------------------------------------
                             ORCA-MATRIX DRIVEN CI
--------------------------------------------------------------------------------


Wavefunction type
-----------------
Correlation treatment                      ...      CCSD     
Single excitations                         ... ON
Orbital optimization                       ... OFF
Calculation of Z vector                    ... OFF
Calculation of Brueckner orbitals          ... OFF
Perturbative triple excitations            ... OFF
Calculation of F12 correction              ... OFF
Frozen core treatment                      ... chemical core (30 el)
Reference Wavefunction                     ... RHF
  Internal Orbitals:    15 ...   26 ( 12 MO's/ 24 electrons)
  Virtual  Orbitals:    27 ...   80 ( 54 MO's              )
Number of AO's                             ...     81
Number of electrons                        ...     54
Number of correlated electrons             ...     24

Algorithmic settings
--------------------
Integral transformation                    ... All integrals via the RI transformation
K(C) Formation                             ... RI-DLPNO
   PNO-Integral Storage                    ... ON DISK
   PNO occupation number cut-off           ... 3.330e-07
   Singles PNO occupation number cut-off   ... 9.990e-09
   PNO Mulliken prescreening cut-off       ... 1.000e-03
   Domain cut-off (Mulliken population)    ... 1.000e-03
   PNO Normalization                       ...    1
Maximum number of iterations               ...        50
Convergence tolerance (max. residuum)      ... 1.000e-06
Level shift for amplitude update           ... 2.000e-01
Maximum number of DIIS vectors             ...         7
DIIS turned on at iteration                ...         0
Damping before turning on DIIS             ...     0.500
Damping after turning on DIIS              ...     0.000
Pair specific amplitude update             ... OFF
Natural orbital iterations                 ... OFF
Perturbative natural orbital generation    ... OFF
Printlevel                                 ... 2

Singles Fock matrix elements calculated using PNOs.

Memory handling:
----------------
Maximum memory for working arrays          ...    512 MB
Data storage in matrix containers          ... UNCOMPRESSED
Data type for integral storage             ... DOUBLE
In-Core Storage of quantities:
   Amplitudes+Sigma Vector      ... NO
   J+K operators                ... NO
   DIIS vectors                 ... NO
   3-external integrals         ... NO
   4-external integrals         ... NO

Localization treatment:
-----------------------
Localization option                        ...    2
Localization threshhold                    ... -1.0e+00
Using relative localization threshhold     ... 1.0e-08
Neglect threshold for strong pairs         ... 1.000e-05 Eh
Prescreening threshold for very weak pairs ... 1.000e-07 Eh
Using randomized seed for localization     ... on

Initializing the integral package          ... done
Localizing the valence orbitals
Localizing the valence orbitals
------------------------------------------------------------------------------
                           ORCA ORBITAL LOCALIZATION
------------------------------------------------------------------------------

Input orbitals are from                  ... AR3LD_2.8_3.6_4.0.proc0.gbw
Output orbitals are to                   ... AR3LD_2.8_3.6_4.0.proc0.loc
Max. number of iterations                ... 128
Localizations seeded randomly            ... on
Convergence tolerance                    ... 2.000e-07
Using relative localization threshhold   ... 1.000e-08
Threshold for strong local MOs           ... 9.500e-01
Threshold for bond MOs                   ... 8.500e-01
Operator                                 ... 0
Orbital range for localization           ... 15 to 26
Localization criterion                   ... FOSTER-BOYS
Doing the dipole integrals     ... o.k.
Entering Jacobi type localization:
Using Cholesky decomposition as initial guess.
Initial value of the localization sum :   175.267056
ITERATION   0 : L=  182.0831412557 DL=  6.82e+00 (MAX-T)=  45.000 
ITERATION   1 : L=  182.0950038729 DL=  1.19e-02 (MAX-T)=   2.167 
ITERATION   2 : L=  182.0992318093 DL=  4.23e-03 (MAX-T)=   1.507 
ITERATION   3 : L=  182.1039255922 DL=  4.69e-03 (MAX-T)=   1.273 
ITERATION   4 : L=  182.1087020556 DL=  4.78e-03 (MAX-T)=   1.545 
ITERATION   5 : L=  182.1133515902 DL=  4.65e-03 (MAX-T)=   1.296 
ITERATION   6 : L=  182.1183406568 DL=  4.99e-03 (MAX-T)=   1.557 
ITERATION   7 : L=  182.1224010633 DL=  4.06e-03 (MAX-T)=   1.376 
ITERATION   8 : L=  182.1269313849 DL=  4.53e-03 (MAX-T)=   1.119 
ITERATION   9 : L=  182.1311309531 DL=  4.20e-03 (MAX-T)=   1.202 
ITERATION  10 : L=  182.1351807986 DL=  4.05e-03 (MAX-T)=   1.008 
ITERATION  11 : L=  182.1387631411 DL=  3.58e-03 (MAX-T)=   0.947 
ITERATION  12 : L=  182.1425047177 DL=  3.74e-03 (MAX-T)=   1.307 
ITERATION  13 : L=  182.1450589891 DL=  2.55e-03 (MAX-T)=   1.065 
ITERATION  14 : L=  182.1484464076 DL=  3.39e-03 (MAX-T)=   1.100 
ITERATION  15 : L=  182.1503286953 DL=  1.88e-03 (MAX-T)=   0.913 
ITERATION  16 : L=  182.1531567091 DL=  2.83e-03 (MAX-T)=   1.069 
ITERATION  17 : L=  182.1553253886 DL=  2.17e-03 (MAX-T)=   1.063 
ITERATION  18 : L=  182.1573544175 DL=  2.03e-03 (MAX-T)=   1.194 
ITERATION  19 : L=  182.1591608132 DL=  1.81e-03 (MAX-T)=   0.912 
ITERATION  20 : L=  182.1604013828 DL=  1.24e-03 (MAX-T)=   1.214 
ITERATION  21 : L=  182.1618904394 DL=  1.49e-03 (MAX-T)=   0.979 
ITERATION  22 : L=  182.1629315242 DL=  1.04e-03 (MAX-T)=   0.965 
ITERATION  23 : L=  182.1644065859 DL=  1.48e-03 (MAX-T)=   0.979 
ITERATION  24 : L=  182.1652326822 DL=  8.26e-04 (MAX-T)=   0.778 
ITERATION  25 : L=  182.1667542282 DL=  1.52e-03 (MAX-T)=   0.906 
ITERATION  26 : L=  182.1677180170 DL=  9.64e-04 (MAX-T)=   0.791 
ITERATION  27 : L=  182.1684522034 DL=  7.34e-04 (MAX-T)=   0.624 
ITERATION  28 : L=  182.1691868275 DL=  7.35e-04 (MAX-T)=   0.603 
ITERATION  29 : L=  182.1696249059 DL=  4.38e-04 (MAX-T)=   0.523 
ITERATION  30 : L=  182.1699803374 DL=  3.55e-04 (MAX-T)=   0.507 
ITERATION  31 : L=  182.1702545926 DL=  2.74e-04 (MAX-T)=   0.371 
ITERATION  32 : L=  182.1705140645 DL=  2.59e-04 (MAX-T)=   0.379 
ITERATION  33 : L=  182.1707129401 DL=  1.99e-04 (MAX-T)=   0.269 
ITERATION  34 : L=  182.1708561145 DL=  1.43e-04 (MAX-T)=   0.312 
ITERATION  35 : L=  182.1709257576 DL=  6.96e-05 (MAX-T)=   0.256 
ITERATION  36 : L=  182.1710288619 DL=  1.03e-04 (MAX-T)=   0.256 
ITERATION  37 : L=  182.1710964255 DL=  6.76e-05 (MAX-T)=   0.177 
ITERATION  38 : L=  182.1711533555 DL=  5.69e-05 (MAX-T)=   0.168 
ITERATION  39 : L=  182.1712060882 DL=  5.27e-05 (MAX-T)=   0.166 
ITERATION  40 : L=  182.1712519049 DL=  4.58e-05 (MAX-T)=   0.130 
ITERATION  41 : L=  182.1712828608 DL=  3.10e-05 (MAX-T)=   0.109 
ITERATION  42 : L=  182.1713055491 DL=  2.27e-05 (MAX-T)=   0.085 
ITERATION  43 : L=  182.1713225306 DL=  1.70e-05 (MAX-T)=   0.081 
ITERATION  44 : L=  182.1713422722 DL=  1.97e-05 (MAX-T)=   0.081 
ITERATION  45 : L=  182.1713575894 DL=  1.53e-05 (MAX-T)=   0.071 
ITERATION  46 : L=  182.1713724935 DL=  1.49e-05 (MAX-T)=   0.074 
ITERATION  47 : L=  182.1713869621 DL=  1.45e-05 (MAX-T)=   0.071 
ITERATION  48 : L=  182.1713961647 DL=  9.20e-06 (MAX-T)=   0.074 
ITERATION  49 : L=  182.1714090316 DL=  1.29e-05 (MAX-T)=   0.069 
ITERATION  50 : L=  182.1714186324 DL=  9.60e-06 (MAX-T)=   0.052 
ITERATION  51 : L=  182.1714298052 DL=  1.12e-05 (MAX-T)=   0.071 
ITERATION  52 : L=  182.1714396431 DL=  9.84e-06 (MAX-T)=   0.069 
ITERATION  53 : L=  182.1714492745 DL=  9.63e-06 (MAX-T)=   0.072 
ITERATION  54 : L=  182.1714579503 DL=  8.68e-06 (MAX-T)=   0.071 
ITERATION  55 : L=  182.1714660085 DL=  8.06e-06 (MAX-T)=   0.063 
ITERATION  56 : L=  182.1714737672 DL=  7.76e-06 (MAX-T)=   0.055 
ITERATION  57 : L=  182.1714833983 DL=  9.63e-06 (MAX-T)=   0.072 
ITERATION  58 : L=  182.1714901504 DL=  6.75e-06 (MAX-T)=   0.066 
ITERATION  59 : L=  182.1714978075 DL=  7.66e-06 (MAX-T)=   0.061 
ITERATION  60 : L=  182.1715064413 DL=  8.63e-06 (MAX-T)=   0.066 
ITERATION  61 : L=  182.1715135587 DL=  7.12e-06 (MAX-T)=   0.055 
ITERATION  62 : L=  182.1715204775 DL=  6.92e-06 (MAX-T)=   0.066 
ITERATION  63 : L=  182.1715275913 DL=  7.11e-06 (MAX-T)=   0.072 
ITERATION  64 : L=  182.1715337045 DL=  6.11e-06 (MAX-T)=   0.050 
ITERATION  65 : L=  182.1715417029 DL=  8.00e-06 (MAX-T)=   0.064 
ITERATION  66 : L=  182.1715472731 DL=  5.57e-06 (MAX-T)=   0.059 
ITERATION  67 : L=  182.1715550479 DL=  7.77e-06 (MAX-T)=   0.053 
ITERATION  68 : L=  182.1715622127 DL=  7.16e-06 (MAX-T)=   0.066 
ITERATION  69 : L=  182.1715682845 DL=  6.07e-06 (MAX-T)=   0.057 
ITERATION  70 : L=  182.1715762472 DL=  7.96e-06 (MAX-T)=   0.061 
ITERATION  71 : L=  182.1715823079 DL=  6.06e-06 (MAX-T)=   0.058 
ITERATION  72 : L=  182.1715869886 DL=  4.68e-06 (MAX-T)=   0.055 
ITERATION  73 : L=  182.1715936114 DL=  6.62e-06 (MAX-T)=   0.062 
ITERATION  74 : L=  182.1715993417 DL=  5.73e-06 (MAX-T)=   0.066 
ITERATION  75 : L=  182.1716062914 DL=  6.95e-06 (MAX-T)=   0.054 
ITERATION  76 : L=  182.1716117676 DL=  5.48e-06 (MAX-T)=   0.050 
ITERATION  77 : L=  182.1716175316 DL=  5.76e-06 (MAX-T)=   0.065 
ITERATION  78 : L=  182.1716208435 DL=  3.31e-06 (MAX-T)=   0.054 
ITERATION  79 : L=  182.1716262625 DL=  5.42e-06 (MAX-T)=   0.044 
ITERATION  80 : L=  182.1716338501 DL=  7.59e-06 (MAX-T)=   0.054 
ITERATION  81 : L=  182.1716396186 DL=  5.77e-06 (MAX-T)=   0.062 
ITERATION  82 : L=  182.1716450790 DL=  5.46e-06 (MAX-T)=   0.049 
ITERATION  83 : L=  182.1716517123 DL=  6.63e-06 (MAX-T)=   0.060 
ITERATION  84 : L=  182.1716558189 DL=  4.11e-06 (MAX-T)=   0.056 
ITERATION  85 : L=  182.1716602336 DL=  4.41e-06 (MAX-T)=   0.063 
ITERATION  86 : L=  182.1716645703 DL=  4.34e-06 (MAX-T)=   0.063 
ITERATION  87 : L=  182.1716700820 DL=  5.51e-06 (MAX-T)=   0.063 
ITERATION  88 : L=  182.1716755298 DL=  5.45e-06 (MAX-T)=   0.044 
ITERATION  89 : L=  182.1716806705 DL=  5.14e-06 (MAX-T)=   0.059 
ITERATION  90 : L=  182.1716865185 DL=  5.85e-06 (MAX-T)=   0.050 
ITERATION  91 : L=  182.1716904907 DL=  3.97e-06 (MAX-T)=   0.049 
ITERATION  92 : L=  182.1716961066 DL=  5.62e-06 (MAX-T)=   0.054 
ITERATION  93 : L=  182.1717013768 DL=  5.27e-06 (MAX-T)=   0.047 
ITERATION  94 : L=  182.1717059143 DL=  4.54e-06 (MAX-T)=   0.044 
ITERATION  95 : L=  182.1717102659 DL=  4.35e-06 (MAX-T)=   0.049 
ITERATION  96 : L=  182.1717151162 DL=  4.85e-06 (MAX-T)=   0.055 
ITERATION  97 : L=  182.1717185876 DL=  3.47e-06 (MAX-T)=   0.042 
ITERATION  98 : L=  182.1717239087 DL=  5.32e-06 (MAX-T)=   0.050 
ITERATION  99 : L=  182.1717270165 DL=  3.11e-06 (MAX-T)=   0.045 
ITERATION 100 : L=  182.1717313469 DL=  4.33e-06 (MAX-T)=   0.057 
ITERATION 101 : L=  182.1717357622 DL=  4.42e-06 (MAX-T)=   0.052 
ITERATION 102 : L=  182.1717400617 DL=  4.30e-06 (MAX-T)=   0.047 
ITERATION 103 : L=  182.1717452642 DL=  5.20e-06 (MAX-T)=   0.047 
ITERATION 104 : L=  182.1717500678 DL=  4.80e-06 (MAX-T)=   0.053 
ITERATION 105 : L=  182.1717551907 DL=  5.12e-06 (MAX-T)=   0.053 
ITERATION 106 : L=  182.1717583744 DL=  3.18e-06 (MAX-T)=   0.039 
ITERATION 107 : L=  182.1717628630 DL=  4.49e-06 (MAX-T)=   0.055 
ITERATION 108 : L=  182.1717669360 DL=  4.07e-06 (MAX-T)=   0.051 
ITERATION 109 : L=  182.1717714383 DL=  4.50e-06 (MAX-T)=   0.045 
ITERATION 110 : L=  182.1717751941 DL=  3.76e-06 (MAX-T)=   0.052 
ITERATION 111 : L=  182.1717785391 DL=  3.35e-06 (MAX-T)=   0.040 
ITERATION 112 : L=  182.1717819115 DL=  3.37e-06 (MAX-T)=   0.044 
ITERATION 113 : L=  182.1717852869 DL=  3.38e-06 (MAX-T)=   0.051 
ITERATION 114 : L=  182.1717888952 DL=  3.61e-06 (MAX-T)=   0.041 
ITERATION 115 : L=  182.1717922511 DL=  3.36e-06 (MAX-T)=   0.040 
ITERATION 116 : L=  182.1717944546 DL=  2.20e-06 (MAX-T)=   0.031 
ITERATION 117 : L=  182.1717972028 DL=  2.75e-06 (MAX-T)=   0.036 
ITERATION 118 : L=  182.1717993328 DL=  2.13e-06 (MAX-T)=   0.044 
ITERATION 119 : L=  182.1718040115 DL=  4.68e-06 (MAX-T)=   0.043 
ITERATION 120 : L=  182.1718074690 DL=  3.46e-06 (MAX-T)=   0.054 
ITERATION 121 : L=  182.1718117923 DL=  4.32e-06 (MAX-T)=   0.042 
ITERATION 122 : L=  182.1718163411 DL=  4.55e-06 (MAX-T)=   0.042 
ITERATION 123 : L=  182.1718191170 DL=  2.78e-06 (MAX-T)=   0.041 
ITERATION 124 : L=  182.1718219716 DL=  2.85e-06 (MAX-T)=   0.037 
ITERATION 125 : L=  182.1718245406 DL=  2.57e-06 (MAX-T)=   0.035 
ITERATION 126 : L=  182.1718271602 DL=  2.62e-06 (MAX-T)=   0.041 
ITERATION 127 : L=  182.1718313608 DL=  4.20e-06 (MAX-T)=   0.045 
MAXIMUM NO OF ITERATIONS EXCEEDED - LOCALIZATION NOT CONVERGED


--------------------------------------------------------------------------------
                    LOCALIZED MOLECULAR ORBITAL COMPOSITIONS
--------------------------------------------------------------------------------

The Mulliken populations for each LMO on each atom are computed
The LMO`s will be ordered according to atom index and type
  (A) Strongly localized MO`s have populations of >=0.950 on one atom
  (B) Two center bond orbitals have populations of >=0.850 on two atoms
  (C) Other MO`s are considered to be `delocalized`

FOUND  -  12 strongly local MO`s
       -   0 two center bond MO`s
       -   0 significantly delocalized MO`s

Rather strongly localized orbitals:
MO  26:   2Ar -   1.002085
MO  25:   2Ar -   1.002067
MO  24:   2Ar -   1.001962
MO  23:   2Ar -   1.001909
MO  22:   1Ar -   1.002055
MO  21:   1Ar -   1.001977
MO  20:   1Ar -   1.002016
MO  19:   1Ar -   1.002007
MO  18:   0Ar -   0.999972
MO  17:   0Ar -   0.999865
MO  16:   0Ar -   0.999856
MO  15:   0Ar -   1.000037
Localized MO's were stored in: AR3LD_2.8_3.6_4.0.proc0.loc

Localizing the core orbitals
Localization sum:   219.481738200 
------------------------------------------------------------------------------
                           ORCA ORBITAL LOCALIZATION
------------------------------------------------------------------------------

Input orbitals are from                  ... AR3LD_2.8_3.6_4.0.proc0.loc
Output orbitals are to                   ... AR3LD_2.8_3.6_4.0.proc0.loc
Max. number of iterations                ... 128
Localizations seeded randomly            ... on
Convergence tolerance                    ... 2.000e-07
Using relative localization threshhold   ... 1.000e-08
Threshold for strong local MOs           ... 9.500e-01
Threshold for bond MOs                   ... 8.500e-01
Operator                                 ... 0
Orbital range for localization           ... 0 to 14
Localization criterion                   ... FOSTER-BOYS
Doing the dipole integrals     ... o.k.
Entering Jacobi type localization:
Using Cholesky decomposition as initial guess.
Initial value of the localization sum :   219.025257
ITERATION   0 : L=  219.4781019675 DL=  4.53e-01 (MAX-T)=  45.000 
ITERATION   1 : L=  219.4816954122 DL=  3.59e-03 (MAX-T)=  10.603 
ITERATION   2 : L=  219.4817375620 DL=  4.21e-05 (MAX-T)=   1.112 
ITERATION   3 : L=  219.4817382002 DL=  6.38e-07 (MAX-T)=   0.115 
LOCALIZATION SUM CONVERGED


--------------------------------------------------------------------------------
                    LOCALIZED MOLECULAR ORBITAL COMPOSITIONS
--------------------------------------------------------------------------------

The Mulliken populations for each LMO on each atom are computed
The LMO`s will be ordered according to atom index and type
  (A) Strongly localized MO`s have populations of >=0.950 on one atom
  (B) Two center bond orbitals have populations of >=0.850 on two atoms
  (C) Other MO`s are considered to be `delocalized`

FOUND  -  15 strongly local MO`s
       -   0 two center bond MO`s
       -   0 significantly delocalized MO`s

Rather strongly localized orbitals:
MO  14:   2Ar -   1.000023
MO  13:   2Ar -   1.000061
MO  12:   2Ar -   1.000033
MO  11:   2Ar -   1.000000
MO  10:   2Ar -   1.000045
MO   9:   1Ar -   1.000017
MO   8:   1Ar -   1.000045
MO   7:   1Ar -   1.000024
MO   6:   1Ar -   1.000000
MO   5:   1Ar -   1.000048
MO   4:   0Ar -   1.000012
MO   3:   0Ar -   1.000015
MO   2:   0Ar -   1.000011
MO   1:   0Ar -   1.000000
MO   0:   0Ar -   1.000007
Localized MO's were stored in: AR3LD_2.8_3.6_4.0.proc0.loc

Warning: reference  - re-canonicalizations have been set to INT 1 VIRT 1
Warning: internal orbitals are localized - no re-canonicalization of internal orbitals
Warning: UsePNO is turned on - no re-canonicalization of internal and virtual orbitals
Fock densities were made 
Making Fock matrix and reference energy:

--------------------------
CLOSED-SHELL FOCK OPERATOR
--------------------------

Time needed for Fock operator              ...            0.850 sec
Reference energy                           ...  -1580.389161515

--------------
DLPNO SETTINGS (2015 fully linear scaling implementation)
--------------

TCutMKN:           1.000e-03
TCutPAO:           1.000e-03
TCutPNO:           3.330e-07
TCutPNOSingles:    9.990e-09
TCutEN:            9.700e-01
TCutPAOExt:        1.000e-01
TCutPairs:         1.000e-05
TCutPre:           1.000e-07
TCutOSV:           1.000e-06
TCutDOij:          1.000e-05
TCutDO:            1.000e-02
TCutC:             1.000e-04
TCutCPAO:          1.000e-03
TCutCMO:           1.000e-03
TScaleDOMP2PreScr: 2.000e+00
TScaleMKNMP2PreScr:1.000e+01
TScalePNOMP2PreScr:1.000e+00
PAO overlap thresh 1.000e-08
Using PNOs for Singles Fock computation
Use new domains
Use fully linear algorithm

--------------------------
Mulliken population of the LMOs            ... ok
Performing proximity check                 ... No problems found
Calculating differential overlap integrals ... ok

------------------------
PRESCREENING OF HF PAIRS
------------------------

   .... Finished loop over pairs

                  ============================================
                    30 of   78 PAIRS WERE SKIPPED as HF PAIRS
                  ============================================

Total time spent in skipping HF pairs                 ...     0.000 sec
--------------------------
ELECTRON PAIR PRESCREENING
--------------------------

Dipole-based pair screening          .... used

   TCutDOij = 1.000000e-05
   TCutPre  = 1.000000e-07
   .... Finished loop over pairs
Total time spent in the prescreening                  ...     0.000 sec
sum of pair energies estimated for screened out pairs ...       0.000000000000 Eh
Thresholds for map construction and integral transformation for crude MP2:
   TCutMKN                    ...     1.0e-02
   TCutDO                     ...     2.0e-02
   TCutPairs                  ...     1.0e-05
   TCutPNO_CrudeMP2           ...     3.3e-07
   TCutPNOSingles_CrudeMP2    ...     1.0e-08
--------------------------------
LOCAL RI TRANSFORMATION (IAVPAO)
--------------------------------

Orbital window:      15 to 26
Number of PAOs:      81
Basis functions:     81 (33 shells)
Aux. functions:     276 (84 shells)
Use SHARK:           on
Have SHARK:         yes

Processing maps (0.0 sec)
Average map sizes:
   Aux shells -> MOs              12.0
   Aux shells -> PAOs             81.0
   MOs        -> AO shells        33.0
   PAOs       -> AO shells        33.0

Calculating integrals (0.1 sec, 2.050 MB)
Sorting integrals (0.0 sec, 2.047 MB)
Total time for the integral transformation: 0.1 sec
--------------------------------
INITIAL GUESS AND PNO GENERATION
--------------------------------

Populations of internal orbitals onto Fragments:
  15:      1.000    0.000    0.000  assigned to fragment   1
  16:      1.000    0.000    0.000  assigned to fragment   1
  17:      1.000    0.000    0.000  assigned to fragment   1
  18:      1.000    0.000    0.000  assigned to fragment   1
  19:      0.000    1.002    0.002  assigned to fragment   2
  20:      0.000    1.002    0.002  assigned to fragment   2
  21:      0.000    1.002    0.002  assigned to fragment   2
  22:      0.000    1.002    0.002  assigned to fragment   2
  23:      0.000    0.002    1.002  assigned to fragment   3
  24:      0.000    0.002    1.002  assigned to fragment   3
  25:      0.000    0.002    1.002  assigned to fragment   3
  26:      0.000    0.002    1.002  assigned to fragment   3

Summary assignment:
   4 orbitals assigned to fragment   1
   4 orbitals assigned to fragment   2
   4 orbitals assigned to fragment   3

PNO truncation parameters                   .... 
    PAOOverlapThresh   =        1.000e-08

Pair selection                          .... 
  modified with fragment specific keywords
  Pairs will be selected according to these
  intra(inter)fragment cutoffs
  1 <-> 1
    Intrafragment pairs 1 <-> 1 neglected for CCSD
  1 <-> 2
    TCutPairs          =        1.000e-05
    TCutPNO            =        3.330e-07
    TCutMKN            =        1.000e-02
    TCutDO             =        2.000e-02
    TCutPNOSingles     =        9.990e-09
    TCutMP2Pairs       =        1.000e-06
  1 <-> 3
    TCutPairs          =        1.000e-05
    TCutPNO            =        3.330e-07
    TCutMKN            =        1.000e-02
    TCutDO             =        2.000e-02
    TCutPNOSingles     =        9.990e-09
    TCutMP2Pairs       =        1.000e-06
  2 <-> 2
    Intrafragment pairs 2 <-> 2 neglected for CCSD
  2 <-> 3
    TCutPairs          =        1.000e-05
    TCutPNO            =        3.330e-07
    TCutMKN            =        1.000e-02
    TCutDO             =        2.000e-02
    TCutPNOSingles     =        9.990e-09
    TCutMP2Pairs       =        1.000e-06
  3 <-> 3
    Intrafragment pairs 3 <-> 3 neglected for CCSD

Type of local MP2 treatment                 .... semi-local MP2
Strategy for PNO selection                  .... occupation number selection
Pair density normalization                  .... MP2 norm
Spin component scaling                      .... not used

   .... Finished loop over pairs
Making pair pair interaction lists          ... done

                       ===========================
                         48 OF   60 PAIRS ARE KEPT CCSD PAIRS
                          0 OF   60 PAIRS ARE KEPT MP2 PAIRS
                         12 OF   60 PAIRS ARE SKIPPED
                       ===========================

Total time spent in the initial guess                 ...     0.127 sec
SL-MP2 correlation energy (all non-screened pairs)    ...      -0.004626637813 Eh

Initial PNO correlation energy                        ...      -0.004526544362 Eh
sum of pair energies prescreened and skipped MP2 pairs...       0.000000000000 Eh
sum of pair energies of crude MP2 skipped pairs only  ...       0.000000000000 Eh
sum of MP2 pair energies for pairs that were not kept ...       0.000000000000 Eh
sum of PNO error estimates for the kept pairs         ...      -0.000100093451 Eh
                                                          --------------------
sum of all corrections                                         -0.000100093451
Initial total correlation energy                               -0.004626637813
Thresholds for map construction and integral transformation for fine MP2 and CCSD(T) calculation:
   TCutMKN   ...     1.0e-03
   TCutDO    ...     1.0e-02
   TCutPairs ...     1.0e-05
   TCutCMO   ...     1.0e-03
   TCutCPAO  ...     1.0e-03

--------------------------------
LOCAL RI TRANSFORMATION (IAVPAO)
--------------------------------

Orbital window:      15 to 26
Number of PAOs:      81
Basis functions:     81 (33 shells)
Aux. functions:     276 (84 shells)
Use SHARK:           on
Have SHARK:         yes

Processing maps (0.0 sec)
Average map sizes:
   Aux shells -> MOs              12.0
   Aux shells -> PAOs             81.0
   MOs        -> AO shells        33.0
   PAOs       -> AO shells        33.0

Calculating integrals (0.1 sec, 2.050 MB)
Sorting integrals (0.0 sec, 2.047 MB)
Total time for the integral transformation: 0.1 sec
--------------------------------
INITIAL GUESS AND PNO GENERATION
--------------------------------

Populations of internal orbitals onto Fragments:
  15:      1.000    0.000    0.000  assigned to fragment   1
  16:      1.000    0.000    0.000  assigned to fragment   1
  17:      1.000    0.000    0.000  assigned to fragment   1
  18:      1.000    0.000    0.000  assigned to fragment   1
  19:      0.000    1.002    0.002  assigned to fragment   2
  20:      0.000    1.002    0.002  assigned to fragment   2
  21:      0.000    1.002    0.002  assigned to fragment   2
  22:      0.000    1.002    0.002  assigned to fragment   2
  23:      0.000    0.002    1.002  assigned to fragment   3
  24:      0.000    0.002    1.002  assigned to fragment   3
  25:      0.000    0.002    1.002  assigned to fragment   3
  26:      0.000    0.002    1.002  assigned to fragment   3

Summary assignment:
   4 orbitals assigned to fragment   1
   4 orbitals assigned to fragment   2
   4 orbitals assigned to fragment   3

PNO truncation parameters                   .... 
    PAOOverlapThresh   =        1.000e-08

Pair selection                          .... 
  modified with fragment specific keywords
  Pairs will be selected according to these
  intra(inter)fragment cutoffs
  1 <-> 1
    Intrafragment pairs 1 <-> 1 neglected for CCSD
  1 <-> 2
    TCutPairs          =        1.000e-05
    TCutPNO            =        3.330e-07
    TCutMKN            =        1.000e-03
    TCutDO             =        1.000e-02
    TCutPNOSingles     =        9.990e-09
    TCutMP2Pairs       =        1.000e-06
  1 <-> 3
    TCutPairs          =        1.000e-05
    TCutPNO            =        3.330e-07
    TCutMKN            =        1.000e-03
    TCutDO             =        1.000e-02
    TCutPNOSingles     =        9.990e-09
    TCutMP2Pairs       =        1.000e-06
  2 <-> 2
    Intrafragment pairs 2 <-> 2 neglected for CCSD
  2 <-> 3
    TCutPairs          =        1.000e-05
    TCutPNO            =        3.330e-07
    TCutMKN            =        1.000e-03
    TCutDO             =        1.000e-02
    TCutPNOSingles     =        9.990e-09
    TCutMP2Pairs       =        1.000e-06
  3 <-> 3
    Intrafragment pairs 3 <-> 3 neglected for CCSD

Type of local MP2 treatment                 .... semi-local MP2
Strategy for PNO selection                  .... occupation number selection
Pair density normalization                  .... MP2 norm
Spin component scaling                      .... not used

   .... Finished loop over pairs

 PNO Occupation Number Statistics: 
  | Av. % of trace(Dij) retained        ...  98.490538462059
  | sigma^2 in % of trace(Dij) retained ...   4.82e-01
  | Av. % of trace(Di) retained         ...  99.999850424509
  | sigma^2 in % of trace(Di) retained  ...   4.89e-09
 Distributions of % trace(Dij) recovered:
  |   [90.0, 99.0) ...    32 ( 66.7 % of all pairs)
  |   [99.0, 99.9) ...    16 ( 33.3 % of all pairs)
 Distributions of % trace(Di) recovered :
  |       >= 99.9  ...    12 (100.0 % of all I-pairs )

Making pair pair interaction lists          ... done

                       ===========================
                         48 OF   60 PAIRS ARE KEPT
                       ===========================

Total time spent in the initial guess                 ...     0.177 sec
SL-MP2 correlation energy (all non-screened pairs)    ...      -0.004626653856 Eh

Initial PNO correlation energy                        ...      -0.004526543185 Eh
sum of pair energies estimated for screened out pairs ...       0.000000000000 Eh
sum of MP2 pair energies for pairs that were not kept ...       0.000000000000 Eh
sum of PNO error estimates for the kept pairs         ...      -0.000100110670 Eh
                                                          --------------------
sum of all corrections                                         -0.000100110670
Initial total correlation energy                               -0.004626653856
Thresholds for map construction and integral transformation for fine MP2 and CCSD(T) calculation:
   TCutMKN   ...     1.0e-03
   TCutDO    ...     1.0e-02
   TCutPairs ...     1.0e-05
   TCutCMO   ...     1.0e-03
   TCutCPAO  ...     1.0e-03

Time for aux screen maps:            0.000
Time for maps after fine MP2:            0.001
-----------------------------
LOCAL RI TRANSFORMATION (IJV)
-----------------------------

Orbital window:      15 to 26
Basis functions:     81 (33 shells)
Aux. functions:     276 (84 shells)
Use SHARK:           on

Processing maps (0.0 sec)
Average map sizes:
   Aux shells -> MOs(i)           12.0
   Aux shells -> MOs(j)           12.0
   MOs        -> AO shells        33.0

Calculating integrals NOTE: Switching SHARK to General Contraction for MDCI
      If that is not desired please turn off the PGCFlag in the input (%shark PGCFlag 0 end)
(0.5 sec, 0.306 MB)
Sorting integrals (0.0 sec, 0.303 MB)
Total time for the integral transformation: 0.5 sec
--------------------------------
LOCAL RI TRANSFORMATION (VABPAO)
--------------------------------

Number of PAOs:      81
Basis functions:     81 (33 shells)
Aux. functions:     276 (84 shells)
Use SHARK:           on

Processing maps (0.0 sec)
Average map sizes:
   Aux shells -> PAOs             81.0
   PAOs       -> AO shells        33.0

Calculating integrals NOTE: Switching SHARK to General Contraction for MDCI
      If that is not desired please turn off the PGCFlag in the input (%shark PGCFlag 0 end)
(0.5 sec, 13.819 MB)
Finished


-------------------------------------
Pair Pair Term precalculation with     
RI-(ij|mn) and (im|jn) transformation  
ON THE FLY                             
-------------------------------------

   IBatch   1 (of   1)              ... done (    0.610 sec)
Total EXT                           ...           0.610 sec

IAVPA Available = YES
VABPAO Available= YES
IJV Available   = YES
IJK Available   = NO
PNO3i Available = YES
PNO3j Available = YES
PNO4 Available  = YES
---------------------
RI-PNO TRANSFORMATION
---------------------

Total Number of PNOs                   ...   385
Average number of PNOs per pair        ...     8
Maximal number of PNOs per pair        ...    13
   #pairs with  1 -  5 PNOs   :    0
   #pairs with  6 - 10 PNOs   :   35
   #pairs with 11 - 15 PNOs   :   13
   #pairs with 16 - 20 PNOs   :    0
   #pairs with 21 - 25 PNOs   :    0
   #pairs with 26 - 30 PNOs   :    0
   #pairs with 31 - 35 PNOs   :    0
   #pairs with 36 - 40 PNOs   :    0
   #pairs with 41 - 45 PNOs   :    0
   #pairs with 46 - 50 PNOs   :    0

Generation of (ij|ab)[P] integrals            ... on
Generation of (ia|bc)[P],(ja|bc)[P] integrals ... on
Storage of 3 and 4 external integrals         ... on
Generation of ALL (ka|bc)[P] integrals        ... on
Keep RI integrals in memory                   ... off

Ibatch:  1 (of  1)
Starting 2-4 index PNO integral generation ... done

Timings:
Total PNO integral transformation time     ...          0.402 sec
Size of the 3-external file                ...         0 MB
Size of the 4-external file                ...         0 MB
Size of the IKJL file                      ...         0 MB
Size of the all 3-external file            ...         1 MB
Size of the 1-external file                ...         0 MB

Making pair/pair overlap matrices          ... done (    0.044 sec)
Size of the pair overlap file              ... 1 MB
Redoing the guess amplitudes               ... done (    0.000 sec)

-------------------------
FINAL STARTUP INFORMATION
-------------------------

E(0)                                       ...  -1580.389161515
E(SL-MP2)                                  ...     -0.004626654
E(SL-MP2) including corrections            ...     -0.004626654
Initial E(tot)                             ...  -1580.393788169
<T|T>                                      ...      0.001672857
Number of pairs included                   ... 48
Total number of pairs                      ... 78

------------------------------------------------
                  RHF COUPLED CLUSTER ITERATIONS
------------------------------------------------

Number of PNO amplitudes to be optimized   ...         3407
Number of non-PNO amplitudes               ...       139968
Untruncated number of regular amplitudes   ...       227448

Iter       E(tot)           E(Corr)          Delta-E          Residual     Time
  0  -1580.393787812     -0.004526186      0.000100468      0.000940219    0.06
                           *** Turning on DIIS ***
  1  -1580.393486362     -0.004224736      0.000301450      0.000197580    0.06
  2  -1580.393521945     -0.004260319     -0.000035583      0.000044544    0.06
  3  -1580.393523684     -0.004262058     -0.000001739      0.000017901    0.07
  4  -1580.393524329     -0.004262703     -0.000000645      0.000002693    0.07
  5  -1580.393524422     -0.004262796     -0.000000094      0.000000705    0.07
               --- The Coupled-Cluster iterations have converged ---

----------------------
COUPLED CLUSTER ENERGY
----------------------

E(0)                                       ...  -1580.389161515
E(CORR)(strong-pairs)                      ...     -0.004262796
E(CORR)(weak-pairs)                        ...     -0.000100111
E(CORR)(corrected)                         ...     -0.004362907
E(TOT)                                     ...  -1580.393524422
Singles Norm <S|S>**1/2                    ...      0.002403106  
T1 diagnostic                              ...      0.000490532  

------------------
LARGEST AMPLITUDES
------------------
  23-> 27  20-> 27       0.001758
  24-> 29  21-> 29       0.001694
  26-> 28  22-> 28       0.001666
  25-> 28  19-> 28       0.001624
  23-> 30  20-> 27       0.001492
  23-> 27  20-> 30       0.001485
  23-> 31  22-> 27       0.001480
  26-> 27  20-> 31       0.001419
  24-> 29  21-> 32       0.001399
  25-> 27  20-> 31       0.001398
  26-> 28  22-> 32       0.001369
  24-> 27  20-> 31       0.001365
  23-> 31  21-> 27       0.001340
  23-> 31  19-> 27       0.001330
  25-> 27  19-> 27       0.001316
  25-> 32  19-> 28       0.001316


 ===========================================================
         LOCAL ENERGY DECOMPOSITION FOR DLPNO-CC METHODS
 ===========================================================

Maximum Iterations for the Localization .. 600
Tolerance for the Localization          ..  1.00e-06
Number of fragments = 3
Fragment  1:  0
Fragment  2:  1
Fragment  3:  2

Populations of internal orbitals onto Fragments:
   0:      1.000    0.000    0.000  assigned to fragment   1
   1:      1.000    0.000    0.000  assigned to fragment   1
   2:      1.000    0.000    0.000  assigned to fragment   1
   3:      1.000    0.000    0.000  assigned to fragment   1
   4:      1.000    0.000    0.000  assigned to fragment   1
   5:      0.000    1.000    0.000  assigned to fragment   2
   6:      0.000    1.000    0.000  assigned to fragment   2
   7:      0.000    1.000    0.000  assigned to fragment   2
   8:      0.000    1.000    0.000  assigned to fragment   2
   9:      0.000    1.000    0.000  assigned to fragment   2
  10:      0.000    0.000    1.000  assigned to fragment   3
  11:      0.000    0.000    1.000  assigned to fragment   3
  12:      0.000    0.000    1.000  assigned to fragment   3
  13:      0.000    0.000    1.000  assigned to fragment   3
  14:      0.000    0.000    1.000  assigned to fragment   3
  15:      1.000    0.000    0.000  assigned to fragment   1
  16:      1.000    0.000    0.000  assigned to fragment   1
  17:      1.000    0.000    0.000  assigned to fragment   1
  18:      1.000    0.000    0.000  assigned to fragment   1
  19:      0.000    1.002    0.002  assigned to fragment   2
  20:      0.000    1.002    0.002  assigned to fragment   2
  21:      0.000    1.002    0.002  assigned to fragment   2
  22:      0.000    1.002    0.002  assigned to fragment   2
  23:      0.000    0.002    1.002  assigned to fragment   3
  24:      0.000    0.002    1.002  assigned to fragment   3
  25:      0.000    0.002    1.002  assigned to fragment   3
  26:      0.000    0.002    1.002  assigned to fragment   3

Summary assignment:
   9 orbitals assigned to fragment   1
   9 orbitals assigned to fragment   2
   9 orbitals assigned to fragment   3


--------------------------------
CORRELATION ENERGY DECOMPOSITION
--------------------------------


--------------------------------------------------
INTER- vs INTRA-FRAGMENT CORRELATION ENERGIES (Eh)
--------------------------------------------------

                                   Fragment   1            Fragment   2            Fragment   3            
                         ----------------------  ----------------------  ----------------------  
Intra strong pairs               0.000000000000         0.000000000000         0.000000000000  sum=        0.000000000000
Intra weak pairs                 0.000000000000         0.000000000000         0.000000000000  sum=        0.000000000000
Singles contribution             0.000000000031        -0.000000000167        -0.000000000232  sum=       -0.000000000368
                         ----------------------  ----------------------  ----------------------  
                                 0.000000000031        -0.000000000167        -0.000000000232  sum=       -0.000000000368


Interaction correlation for Fragments   2 and   1:
--------------------------------------------------
Inter strong pairs               -0.000388047876 (   -0.244 kcal/mol)
Inter weak pairs                 -0.000007890803 (   -0.005 kcal/mol)
                          ----------------------
Total interaction                -0.000395938679 (   -0.248 kcal/mol)

Interaction correlation for Fragments   3 and   1:
--------------------------------------------------
Inter strong pairs               -0.000754630601 (   -0.474 kcal/mol)
Inter weak pairs                 -0.000026354294 (   -0.017 kcal/mol)
                          ----------------------
Total interaction                -0.000780984895 (   -0.490 kcal/mol)
Interaction correlation for Fragments   3 and   2:
--------------------------------------------------
Inter strong pairs               -0.003120117415 (   -1.958 kcal/mol)
Inter weak pairs                 -0.000065865573 (   -0.041 kcal/mol)
                          ----------------------
Total interaction                -0.003185982988 (   -1.999 kcal/mol)



Sum of INTRA-fragment correlation energies  =        -0.000000000368
Sum of INTER-fragment correlation energies  =        -0.004362906562
                                              ---------------------
Total correlation energy                    =        -0.004362906931

---------------------------------------------
DECOMPOSITION OF CCSD STRONG PAIRS INTO      
    DOUBLE EXCITATION TYPES (Eh)             
---------------------------------------------

Foster-Boys localization is used for localizing PNOs

Intra fragment contributions: 
INTRA Fragment 1                        0.000000000 
INTRA Fragment 2                        0.000000000 
INTRA Fragment 3                        0.000000000 

Charge transfer contributions: 
Charge Transfer 1 to 2                 -0.000000900 
Charge Transfer 1 to 3                 -0.000023043 
Charge Transfer 2 to 1                 -0.000009877 
Charge Transfer 2 to 3                 -0.000343382 
Charge Transfer 3 to 1                 -0.000022674 
Charge Transfer 3 to 2                 -0.000278908 

Dispersion contributions: 
Dispersion  2,1                        -0.000377270 
Dispersion  3,1                        -0.000708913 
Dispersion  3,2                        -0.002497828 

Singles contributions:                   
Singles energy                         -0.000000000 
 
Delocalized contributions: 
Delocalized correlation                 0.000000000 

#Time for LED analysis ..       0.0 (sec)



--------------------------------------------------------------------------------
                                    TIMINGS
--------------------------------------------------------------------------------


Total execution time                   ...        4.462 sec

Localization of occupied MO's          ...        0.090 sec (  2.0%)
Fock Matrix Formation                  ...        0.850 sec ( 19.0%)
Global overlap, Fock, MKN matrices     ...        0.126 sec (  2.8%)
Differential overlap integrals         ...        0.205 sec (  4.6%)
Organizing maps                        ...        0.002 sec (  0.0%)
RI 3-index integral generations        ...        1.146 sec ( 25.7%)
RI-PNO integral transformation         ...        1.061 sec ( 23.8%)
Initial Guess                          ...        0.312 sec (  7.0%)
DIIS Solver                            ...        0.004 sec (  0.1%)
State Vector Update                    ...        0.000 sec (  0.0%)
Sigma-vector construction              ...        0.390 sec (  8.8%)
  <D|H|D>(0-ext)                       ...        0.046 sec ( 11.7% of sigma)
  <D|H|D>(2-ext)                       ...        0.097 sec ( 24.8% of sigma)
  <D|H|D>(4-ext)                       ...        0.005 sec (  1.4% of sigma)
  <D|H|D>(4-ext-corr)                  ...        0.019 sec (  4.8% of sigma)
  CCSD doubles correction              ...        0.009 sec (  2.2% of sigma)
  <S|H|S>                              ...        0.026 sec (  6.6% of sigma)
  <S|H|D>(1-ext)                       ...        0.023 sec (  5.9% of sigma)
  <S|H|D>(3-ext)                       ...        0.003 sec (  0.8% of sigma)
  Fock-dressing                        ...        0.097 sec ( 25.0% of sigma)
  Singles amplitudes                   ...        0.005 sec (  1.2% of sigma)
  (ik|jl)-dressing                     ...        0.028 sec (  7.2% of sigma)
  (ij|ab),(ia|jb)-dressing             ...        0.028 sec (  7.1% of sigma)
Local Energy Decomposition             ...        0.020 sec (  0.5% of ALL)


Maximum memory used throughout the entire MDCI-calculation: 95.9 MB
----------------------------   ----------------
Inter-fragment dispersion       -0.003684122
----------------------------   ----------------


-------------------------   --------------------
FINAL SINGLE POINT ENERGY     -1580.392845637607 
-------------------------   --------------------


------------------------------------------------------------------------------
                              ORCA PROPERTY CALCULATIONS
------------------------------------------------------------------------------

GBWName                                 ... AR3LD_2.8_3.6_4.0.gbw
Number of atoms                         ...      3
Number of basis functions               ...    150
Max core memory                         ...   1024 MB

Electric properties:
Dipole moment                           ... YES
Quadrupole moment                       ...  NO
Static polarizability (Dipole/Dipole)   ...  NO
Static polarizability (Dipole/Quad.)    ...  NO
Static polarizability (Quad./Quad.)     ...  NO
Static polarizability (Velocity)        ...  NO

Atomic electric properties:
Dipole moment                           ...  NO
Quadrupole moment                       ...  NO
Static polarizability                   ...  NO

Choice of electric origin               ... Center of mass
Position of electric origin             ...     4.182594     1.541720     0.000000

General magnetic properties:
Magnetizability                         ...  NO

EPR properties:
g-Tensor (aka g-matrix)                 ...  NO
Zero-Field splitting spin-orbit         ...  NO
Zero-field splitting spin-spin          ...  NO
Hyperfine couplings                     ...  NO (   0 nuclei)
Quadrupole couplings                    ...  NO (   0 nuclei)
Contact density                         ...  NO (   0 nuclei)

NMR properties:
Chemical shifts                         ...  NO (   0 nuclei)
Spin-rotation constants                 ...  NO (   0 nuclei)
Spin-spin couplings                     ...  NO (   0 nuclei,    0 pairs)

Choice of magnetic origin               ... GIAO
Position of magnetic origin             ...     0.000000     0.000000     0.000000

Properties with geometric perturbations:
SCF Hessian                             ...  NO
IR spectrum                             ...  NO
VCD spectrum                            ...  NO
X-ray spectroscopy properties:
SCF XES/XAS/RIXS spectra                ...  NO


-------------
DIPOLE MOMENT
-------------

Method             : SCF
Type of density    : Electron Density
Multiplicity       :   1
Irrep              :   0
Energy             : -1580.3891615154698229 Eh
Relativity type    : 
Basis              : AO
                                X                 Y                 Z
Electronic contribution:     -0.001595858       0.000049495       0.000000000
Nuclear contribution   :     -0.000000000       0.000000000       0.000000000
                        -----------------------------------------
Total Dipole Moment    :     -0.001595858       0.000049495       0.000000000
                        -----------------------------------------
Magnitude (a.u.)       :      0.001596625
Magnitude (Debye)      :      0.004058298



--------------------
Rotational spectrum 
--------------------
 
Rotational constants in cm-1:             0.112459             0.049562             0.034401 
Rotational constants in MHz :          3371.449805          1485.846264          1031.326077 

Dipole components along the rotational axes: 
x,y,z [a.u.] :     0.001544     0.000407     0.000000 
x,y,z [Debye]:     0.003924     0.001036     0.000000 

 

Dipole moment calculation done in   0.0 sec 

Maximum memory used throughout the entire PROP-calculation: 6.8 MB

--------------------------------
SUGGESTED CITATIONS FOR THIS RUN
--------------------------------

Below you find a list of papers that are relevant to this ORCA run
We neither can nor want to force you to cite these papers, but we appreciate if you do
You receive ORCA, which is the product of decades of hard work by many enthusiastic individuals, for free
The only thing we kindly ask in return is that you cite our papers,
We deeply appreciate it, if you show your appreciation for ORCA by not just citing the generic ORCA reference.

Please note that relegating all ORCA citations to the supporting information does *not* help us.
SI sections are not indexed - citations you put there will not count into any citation statistics
But we need these citations in order to attract the funding resources that allow us to do what we are doing

Therefore, if you are a happy ORCA user, please consider citing a few of the papers listed below in the main body of your paper

In addition to the list printed below, the program has created the file AR3LD_2.8_3.6_4.0.bibtex that contains the list in bibtex format
You can import this file easily into all common literature databanks and citation aid programs


List of essential papers. We consider these as the minimum necessary citations

  1. Neese,F.
     Software update: the ORCA program system, version 5.0
     WIRES Comput. Molec. Sci., 2022 12(1)e1606
     doi.org/10.1002/wcms.1606

List of papers to cite with high priority. The work reported in these papers was absolutely
necessary for this run to complete.
Our perspective: the developers of density functionals and basis sets usually get cited in chemistry papers
Good! But without the algorithms to do something with them, the functionals or basis sets would not do anything.
Hence, in our opinion, the algorithm design and method developments papers are equally worthy of getting cited

  1. Neese,F.; Hansen,A.; Liakos,D.G.
     Efficient and accurate approximations to the local coupled cluster singles doubles method using a truncated pair natural orbital basis
     J. Chem. Phys., 2009 131 064103
     doi.org/10.1063/1.3173827
  2. Neese,F.; Wennmohs,F.; Hansen,A.
     Efficient and accurate local approximations to coupled-electron pair approaches: An attempt to revive the pair natural orbital method
     J. Chem. Phys., 2009 130 114108
     doi.org/10.1063/1.3086717
  3. Riplinger,C.; Neese,F.
     An efficient and near linear scaling pair natural orbital based local coupled cluster method
     J. Chem. Phys., 2013 138(3)Art. No. 034106
     doi.org/10.1063/1.4773581
  4. Datta,D.; Kossmann,S.; Neese,F.
     Analytic energy derivatives for the calculation of the first-order molecular properties using the domain-based local pair-natural orbital coupled-cluster theory
     J. Chem. Phys., 2016 145 
     doi.org/10.1063/1.4962369
  5. Riplinger,C.; Pinski,P.; Becker,U.; Valeev,E.F.; Neese,F.
     Sparse maps-A systematic infrastructure for reduced-scaling electronic structure methods. II. Linear scaling domain based pair natural orbital coupled cluster theory
     J. Chem. Phys., 2016 144 
     doi.org/10.1063/1.4939030
  6. Schneider,W.B.; Bistoni,G.; Sparta,M.; Saitow,M.; Riplinger,C.; Auer,A.A.; Neese,F.
     Decomposition of Intermolecular Interaction Energies within the Local Pair Natural Orbital Coupled Cluster Framework
     J. Theo. Comp. Chem., 2016 12 4778-4792
     doi.org/10.1021/acs.jctc.6b00523
  7. Bistoni,G.; Riplinger,C.; Minenkov,Y.; Cavallo,L.; Auer,A.A.; Neese,F.
     Treating Subvalence Correlation Effects in Domain Based Pair Natural Orbital Coupled Cluster Calculations: An Out-of-the-Box Approach
     J. Theo. Comp. Chem., 2017 13 3220-3227
     doi.org/10.1021/acs.jctc.7b00352
  8. Altun,A.; Neese,F.; Bistoni,G.
     HFLD: A Nonempirical London Dispersion-Corrected Hartree-Fock Method for the Quantification and Analysis of Noncovalent Interaction Energies of Large Molecular Systems
     J. Chem. Theory Comput., 2019 15 5894-5907
     doi.org/10.1021/acs.jctc.9b00425
  9. Neese,F.
     The SHARK Integral Generation and Digestion System
     J. Comp. Chem., 2022  1-16
     doi.org/10.1002/jcc.26942
 10. Altun,A.; Neese,F.; Bistoni,G.
     Open-Shell Variant of the London Dispersion-Corrected Hartree–Fock Method (HFLD) for the Quantification and Analysis of Noncovalent Interaction Energies
     J. Chem. Theory Comput., 2022 XX XXXX-XXXX
     doi.org/10.1021/acs.jctc.1c01295

List of suggested additional citations. These are papers that are important in the 'surrounding' of 
of this run, or papers that preceded the highly important papers. If you like your results we are grateful for a citation.

  1. Neese,F.
     The ORCA program system
     WIRES Comput. Molec. Sci., 2012 2(1)73-78
     doi.org/10.1002/wcms.81
  2. Neese,F.
     Software update: the ORCA program system, version 4.0
     WIRES Comput. Molec. Sci., 2018 8(1)1-6
     doi.org/10.1002/wcms.1327
  3. Neese,F.; Wennmohs,F.; Becker,U.; Riplinger,C.
     The ORCA quantum chemistry program package
     J. Chem. Phys., 2020 152 Art. No. L224108
     doi.org/10.1063/5.0004608
  4. Bistoni,G.
     Finding chemical concepts in the Hilbert space: Coupled cluster analyses of noncovalent interactions
     WIRES Comput. Molec. Sci., 2020 10(3)e1442
     doi.org/10.1002/wcms.1442

List of optional additional citations

  1. Neese,F.
     Approximate second-order SCF convergence for spin unrestricted wavefunctions
     Chem. Phys. Lett., 2000 325(1-3)93-98
     doi.org/10.1016/s0009-2614(00)00662-x

Timings for individual modules:

Sum of individual times          ...       10.664 sec (=   0.178 min)
Startup calculation              ...        1.369 sec (=   0.023 min)  12.8 %
SCF iterations                   ...        4.645 sec (=   0.077 min)  43.6 %
Property integrals               ...        0.066 sec (=   0.001 min)   0.6 %
Property calculations            ...        0.085 sec (=   0.001 min)   0.8 %
MDCI module                      ...        4.499 sec (=   0.075 min)  42.2 %
                             ****ORCA TERMINATED NORMALLY****
TOTAL RUN TIME: 0 days 0 hours 0 minutes 10 seconds 738 msec
