
                                 *****************
                                 * O   R   C   A *
                                 *****************

                                            #,                                       
                                            ###                                      
                                            ####                                     
                                            #####                                    
                                            ######                                   
                                           ########,                                 
                                     ,,################,,,,,                         
                               ,,#################################,,                 
                          ,,##########################################,,             
                       ,#########################################, ''#####,          
                    ,#############################################,,   '####,        
                  ,##################################################,,,,####,       
                ,###########''''           ''''###############################       
              ,#####''   ,,,,##########,,,,          '''####'''          '####       
            ,##' ,,,,###########################,,,                        '##       
           ' ,,###''''                  '''############,,,                           
         ,,##''                                '''############,,,,        ,,,,,,###''
      ,#''                                            '''#######################'''  
     '                                                          ''''####''''         
             ,#######,   #######,   ,#######,      ##                                
            ,#'     '#,  ##    ##  ,#'     '#,    #''#        ,####,   ,####,        
            ##       ##  ##   ,#'  ##            #'  '#       #'       #'  '#        
            ##       ##  #######   ##           ,######,      #####,   #    #        
            '#,     ,#'  ##    ##  '#,     ,#' ,#      #,     #,   #   #,  ,#        
             '#######'   ##     ##  '#######'  #'      '#     '####' # '####'        



                #########################################################
                #                        -***-                          #
                #          Department of theory and spectroscopy        #
                #                                                       #
                #                      Frank Neese                      #
                #                                                       #
                #     Directorship, Architecture, Infrastructure        #
                #                    SHARK, DRIVERS                     #
                #        Core code/Algorithms in most modules           #
                #                                                       #
                #        Max Planck Institute fuer Kohlenforschung      #
                #                Kaiser Wilhelm Platz 1                 #
                #                 D-45470 Muelheim/Ruhr                 #
                #                      Germany                          #
                #                                                       #
                #                  All rights reserved                  #
                #                        -***-                          #
                #########################################################


                         Program Version 6.0.0  -   RELEASE  -


 With contributions from (in alphabetic order):
   Daniel Aravena         : Magnetic Suceptibility
   Michael Atanasov       : Ab Initio Ligand Field Theory (pilot matlab implementation)
   Alexander A. Auer      : GIAO ZORA, VPT2 properties, NMR spectrum
   Ute Becker             : All parallelization in ORCA, NUMFREQ, NUMCALC
   Giovanni Bistoni       : ED, misc. LED, open-shell LED, HFLD
   Martin Brehm           : Molecular dynamics
   Dmytro Bykov           : pre 5.0 version of the SCF Hessian
   Marcos Casanova-Páez   : Triplet and SCS-CIS(D). UHF-(DLPNO)-IP/EA/STEOM-CCSD. UHF-CVS-IP/STEOM-CCSD
   Vijay G. Chilkuri      : MRCI spin determinant printing, contributions to CSF-ICE
   Pauline Colinet        : FMM embedding
   Dipayan Datta          : RHF DLPNO-CCSD density
   Achintya Kumar Dutta   : EOM-CC, STEOM-CC
   Nicolas Foglia         : Exact transition moments, OPA infrastructure, MCD improvements
   Dmitry Ganyushin       : Spin-Orbit,Spin-Spin,Magnetic field MRCI
   Miquel Garcia          : C-PCM and meta-GGA Hessian, CCSD/C-PCM, Gaussian charge scheme
   Tiago L. C. Gouveia    : GS-ROHF, GS-ROCIS
   Yang Guo               : DLPNO-NEVPT2, F12-NEVPT2, CIM, IAO-localization
   Andreas Hansen         : Spin unrestricted coupled pair/coupled cluster methods
   Ingolf Harden          : AUTO-CI MPn and infrastructure 
   Benjamin Helmich-Paris : MC-RPA, TRAH-(SCF,CASSCF), AVAS, COSX integrals, SCF dyn. polar.
   Lee Huntington         : MR-EOM, pCC
   Robert Izsak           : Overlap fitted RIJCOSX, COSX-SCS-MP3, EOM
   Riya Kayal             : Wick's Theorem for AUTO-CI, AUTO-CI UHF-CCSDT
   Emily Kempfer          : AUTO-CI, RHF CISDT and CCSDT
   Christian Kollmar      : KDIIS, OOCD, Brueckner-CCSD(T), CCSD density, CASPT2, CASPT2-K, improved NEVPT2
   Axel Koslowski         : Symmetry handling
   Simone Kossmann        : Meta GGA functionals, TD-DFT gradient, OOMP2, (MP2 Hessian; deprecated post 5.0)
   Lucas Lang             : DCDCAS
   Marvin Lechner         : AUTO-CI (C++ implementation), FIC-MRCC
   Spencer Leger          : CASSCF response
   Dagmar Lenk            : GEPOL surface, SMD, ORCA-2-JSON
   Dimitrios Liakos       : Extrapolation schemes; Compound Job, initial MDCI parallelization
   Dimitrios Manganas     : Further ROCIS development; embedding schemes. LFT, Crystal Embedding
   Dimitrios Pantazis     : SARC Basis sets
   Anastasios Papadopoulos: AUTO-CI, single reference methods and gradients
   Taras Petrenko         : pre 6.0 DFT Hessian and TD-DFT gradient, (ASA, deprecated), ECA, 1-Electron XAS/XES, NRVS
   Peter Pinski           : DLPNO-MP2, DLPNO-MP2 Gradient
   Christoph Reimann      : Effective Core Potentials
   Marius Retegan         : Local ZFS, SOC
   Christoph Riplinger    : Optimizer, TS searches, QM/MM, DLPNO-CCSD(T), (RO)-DLPNO pert. Triples
   Michael Roemelt        : Original ROCIS implementation
   Masaaki Saitow         : Open-shell DLPNO-CCSD energy and density
   Barbara Sandhoefer     : DKH picture change effects
   Kantharuban Sivalingam : CASSCF convergence/infrastructure, NEVPT2 and variants, FIC-MRCI
   Bernardo de Souza      : ESD, SOC TD-DFT
   Georgi Stoychev        : AutoAux, RI-MP2 NMR, DLPNO-MP2 response, X2C
   Van Anh Tran           : RI-MP2 g-tensors
   Willem Van den Heuvel  : Paramagnetic NMR
   Zikuan Wang            : NOTCH, Electric field optimization 
   Frank Wennmohs         : Technical directorship and infrastructure
   Hang Xu                : AUTO-CI-Response properties 


 We gratefully acknowledge several colleagues who have allowed us to
 interface, adapt or use parts of their codes:
   Stefan Grimme, W. Hujo, H. Kruse, P. Pracht,  : VdW corrections, initial TS optimization,
                  C. Bannwarth, S. Ehlert,         DFT functionals, gCP, sTDA/sTD-DF
                  L. Wittmann, M. Mueller
   Ed Valeev, F. Pavosevic, A. Kumar             : LibInt (2-el integral package), F12 methods
   Garnet Chan, S. Sharma, J. Yang, R. Olivares  : DMRG
   Ulf Ekstrom                                   : XCFun DFT Library
   Mihaly Kallay                                 : mrcc  (arbitrary order and MRCC methods)
   Frank Weinhold                                : gennbo (NPA and NBO analysis)
   Simon Mueller                                 : openCOSMO-RS
   Christopher J. Cramer and Donald G. Truhlar   : smd solvation model
   Lars Goerigk                                  : TD-DFT with DH, B97 family of functionals
   V. Asgeirsson, H. Jonsson                     : NEB implementation
   FAccTs GmbH                                   : IRC, NEB, NEB-TS, DLPNO-Multilevel, CI-OPT
                                                   MM, QMMM, 2- and 3-layer-ONIOM, Crystal-QMMM,
                                                   LR-CPCM, SF, NACMEs, symmetry and pop. for TD-DFT,
                                                   nearIR, NL-DFT gradient (VV10), updates on ESD,
                                                   ML-optimized integration grids, MBIS, APM,
                                                   GOAT, DOCKER, SOLVATOR, interface openCOSMO-RS
   S Lehtola, MJT Oliveira, MAL Marques          : LibXC Library
   Liviu Ungur et al                             : ANISO software


 Your calculation uses the libint2 library for the computation of 2-el integrals
 For citations please refer to: http://libint.valeyev.net

 Your ORCA version has been built with support for libXC version: 6.2.2
 For citations please refer to: https://libxc.gitlab.io

 This ORCA versions uses:
   CBLAS   interface :  Fast vector & matrix operations
   LAPACKE interface :  Fast linear algebra routines
   SCALAPACK package :  Parallel linear algebra routines
   Shared memory     :  Shared parallel matrices
   BLAS/LAPACK       :  OpenBLAS 0.3.27  USE64BITINT DYNAMIC_ARCH NO_AFFINITY Haswell SINGLE_THREADED
        Core in use  :  Haswell
   Copyright (c) 2011-2014, The OpenBLAS Project


================================================================================

----- Orbital basis set information -----
Your calculation utilizes the basis: aug-cc-pVDZ 
    H, B-Ne : Obtained from the ccRepo (grant-hill.group.shef.ac.uk/ccrepo) Feb. 2017
              R. A. Kendall, T. H. Dunning, Jr., R. J. Harrison, J. Chem. Phys. 96, 6796 (1992)
         He : Obtained from the ccRepo (grant-hill.group.shef.ac.uk/ccrepo) Feb. 2017
              D. E. Woon, T. H. Dunning, Jr., J. Chem. Phys. 100, 2975 (1994)
  Li-Be, Na : Obtained from the ccRepo (grant-hill.group.shef.ac.uk/ccrepo) Feb. 2017
              B. P. Prascher, D. E. Woon, K. A. Peterson, T. H. Dunning, Jr., A. K. Wilson, Theor. Chem. Acc. 128, 69 (2011)
         Mg : Obtained from the Peterson Research Group Website (tyr0.chem.wsu.edu/~kipeters) Feb. 2017
              B. P. Prascher, D. E. Woon, K. A. Peterson, T. H. Dunning, Jr., A. K. Wilson, Theor. Chem. Acc. 128, 69 (2011)
      Al-Ar : Obtained from the ccRepo (grant-hill.group.shef.ac.uk/ccrepo) Feb. 2017
              D. E. Woon, T. H. Dunning, Jr., J. Chem. Phys. 98, 1358 (1993)
      Sc-Zn : Obtained from the ccRepo (grant-hill.group.shef.ac.uk/ccrepo) Feb. 2017
              N. B. Balabanov, K. A. Peterson, J. Chem. Phys. 123, 064107 (2005)
              N. B. Balabanov, K. A. Peterson, J. Chem. Phys. 125, 074110 (2006)
      Ga-Kr : Obtained from the ccRepo (grant-hill.group.shef.ac.uk/ccrepo) Feb. 2017
              A. K. Wilson, D. E. Woon, K. A. Peterson, T. H. Dunning, Jr., J. Chem. Phys. 110, 7667 (1999)

----- AuxC basis set information -----
Your calculation utilizes the auxiliary basis: aug-cc-pVDZ/C 
  H-He, B, Ne, Al-Ar, Ga-Ge, Se-Br : Obtained from the EMSL Basis Set Exchange (bse.pnl.gov) Feb. 2017
                                     F. Weigend, A. Kohn, C. Hattig, J. Chem. Phys. 116, 3175 (2002)
                            Be, Mg : Obtained from the TURBOMOLE 7.0 basis set library
                                     C. Haettig, Phys. Chem. Chem. Phys. 7, 59 (2005)
                               C-F : Obtained from the EMSL Basis Set Exchange (bse.pnl.gov) Feb. 2017
                                     C. Haettig, Phys. Chem. Chem. Phys. 7, 59 (2005)
                                     F. Weigend, A. Kohn, C. Hattig, J. Chem. Phys. 116, 3175 (2002)
                                As : Obtained from the EMSL Basis Set Exchange (bse.pnl.gov) Feb. 2017
                                     C. Haettig, G. Schmitz, J. Kossmann, Phys. Chem. Chem. Phys. 14, 6549 (2012)
                                Kr : Obtained from the TURBOMOLE 7.0 basis set library
                                     F. Weigend, A. Kohn, C. Hattig, J. Chem. Phys. 116, 3175 (2002)
                                     S function revised in Sep. 2009

================================================================================
                                        WARNINGS
                       Please study these warnings very carefully!
================================================================================


WARNING: Post HF methods need fully converged wavefunctions
  ===> : Setting SCFConvForced true
         You can overwrite this default with %scf ConvForced false 


================================================================================
                                       INPUT FILE
================================================================================
NAME = AR3LD_4.4_3.2_4.0.inp
|  1> # MP2 scan of the potential energy curve for Ar...Ar
|  2>                 ! HFLD aug-cc-pvdz aug-cc-pvdz/C verytightscf
|  3>                 *xyz 0 1
|  4>                 Ar(1)	0    0	0.00000000000000
|  5>                 Ar(2)	4.0	0    0.00000000000000
|  6>                 Ar(3)	0.8599999999999999	3.0822718893699177    0.00000000000000
|  7>                 **                         ****END OF INPUT****
================================================================================

                       ****************************
                       * Single Point Calculation *
                       ****************************

---------------------------------
CARTESIAN COORDINATES (ANGSTROEM)
---------------------------------
  Ar     0.000000    0.000000    0.000000
  Ar     4.000000    0.000000    0.000000
  Ar     0.860000    3.082272    0.000000

----------------------------
CARTESIAN COORDINATES (A.U.)
----------------------------
  NO LB      ZA    FRAG     MASS         X           Y           Z
   0 Ar   18.0000    1    39.948    0.000000    0.000000    0.000000
   1 Ar   18.0000    2    39.948    7.558905    0.000000    0.000000
   2 Ar   18.0000    3    39.948    1.625164    5.824650    0.000000

----------------------------------------------
CARTESIAN COORDINATES OF FRAGMENTS (ANGSTROEM)
----------------------------------------------

 FRAGMENT 1 
  Ar    0.000000    0.000000    0.000000

 FRAGMENT 2 
  Ar    4.000000    0.000000    0.000000

 FRAGMENT 3 
  Ar    0.860000    3.082272    0.000000

--------------------------------
INTERNAL COORDINATES (ANGSTROEM)
--------------------------------
 Ar     0   0   0     0.000000000000     0.00000000     0.00000000
 Ar     1   0   0     4.000000000000     0.00000000     0.00000000
 Ar     1   2   0     3.200000000000    74.41010189     0.00000000

---------------------------
INTERNAL COORDINATES (A.U.)
---------------------------
 Ar     0   0   0     0.000000000000     0.00000000     0.00000000
 Ar     1   0   0     7.558904535685     0.00000000     0.00000000
 Ar     1   2   0     6.047123628548    74.41010189     0.00000000

---------------------
BASIS SET INFORMATION
---------------------
There are 1 groups of distinct atoms

 Group   1 Type Ar  : 35s16p2d contracted to 5s4p2d pattern {11111111/7711/11}

Atom   0Ar   basis set group =>   1
Atom   1Ar   basis set group =>   1
Atom   2Ar   basis set group =>   1
---------------------------------
AUXILIARY/C BASIS SET INFORMATION
---------------------------------
There are 1 groups of distinct atoms

 Group   1 Type Ar  : 10s8p6d4f contracted to 10s8p6d4f pattern {1111111111/11111111/111111/1111}

Atom   0Ar   basis set group =>   1
Atom   1Ar   basis set group =>   1
Atom   2Ar   basis set group =>   1
------------------------------------------------------------------------------
                             ORCA STARTUP CALCULATIONS
------------------------------------------------------------------------------
------------------------------------------------------------------------------
                   ___                                                        
                  /   \      - P O W E R E D   B Y -                         
                 /     \                                                     
                 |  |  |   _    _      __       _____    __    __             
                 |  |  |  | |  | |    /  \     |  _  \  |  |  /  |          
                  \  \/   | |  | |   /    \    | | | |  |  | /  /          
                 / \  \   | |__| |  /  /\  \   | |_| |  |  |/  /          
                |  |  |   |  __  | /  /__\  \  |    /   |      \           
                |  |  |   | |  | | |   __   |  |    \   |  |\   \          
                \     /   | |  | | |  |  |  |  | |\  \  |  | \   \       
                 \___/    |_|  |_| |__|  |__|  |_| \__\ |__|  \__/        
                                                                              
                      - O R C A' S   B I G   F R I E N D -                    
                                      &                                       
                       - I N T E G R A L  F E E D E R -                       
                                                                              
 v1 FN, 2020, v2 2021, v3 2022-2024                                           
------------------------------------------------------------------------------


----------------------
SHARK INTEGRAL PACKAGE
----------------------

Number of atoms                             ...      3
Number of basis functions                   ...    150
Number of shells                            ...     72
Maximum angular momentum                    ...      2
Integral batch strategy                     ... SHARK/LIBINT Hybrid
RI-J (if used) integral strategy            ... SPLIT-RIJ (Revised 2003 algorithm where possible)
Printlevel                                  ...      1
Contraction scheme used                     ... PARTIAL GENERAL contraction
Prescreening option                         ... SCHWARTZ
   Thresh                                   ... 1.000e-12
   Tcut                                     ... 1.000e-14
   Tpresel                                  ... 1.000e-14 
Coulomb Range Separation                    ... NOT USED
Exchange Range Separation                   ... NOT USED
Multipole approximations                    ... NOT USED
Finite Nucleus Model                        ... NOT USED
CABS basis                                  ... NOT available
Auxiliary Coulomb fitting basis             ... NOT available
Auxiliary J/K fitting basis                 ... NOT available
Auxiliary Correlation fitting basis         ... AVAILABLE
   # of basis functions in Aux-C            ...    276
   # of shells in Aux-C                     ...     84
   Maximum angular momentum in Aux-C        ...      3
Auxiliary 'external' fitting basis          ... NOT available

Checking pre-screening integrals            ... done (  0.0 sec) Dimension = 72
Save PGC pre-screening integrals            ... done (  0.0 sec) Dimension = 72
Calculate PGC overlap integrals             ... done (  0.0 sec) Dimension = 33
Calculating pre-screening integrals (ORCA)  ... done (  0.1 sec) Dimension = 33
Check shell pair data                       ... done (  0.0 sec)
Shell pair information
Shell pair cut-off parameter TPreSel        ...   1.0e-14
Total number of shell pairs                 ...      2628
Shell pairs after pre-screening             ...      1701
Total number of primitive shell pairs       ...      2628
Primitive shell pairs kept                  ...      1701
          la=0 lb=0:    442 shell pairs
          la=1 lb=0:    641 shell pairs
          la=1 lb=1:    257 shell pairs
          la=2 lb=0:    196 shell pairs
          la=2 lb=1:    144 shell pairs
          la=2 lb=2:     21 shell pairs

Calculating one electron integrals          ... done (  0.0 sec)
Calculating RI/C V-Matrix + Cholesky decomp.... done (  0.0 sec)
Calculating Nuclear repulsion               ... done (  0.0 sec) ENN=    135.409231551130 Eh

Diagonalization of the overlap matrix:
Smallest eigenvalue                        ... 2.290e-02
Time for diagonalization                   ...    0.001 sec
Threshold for overlap eigenvalues          ... 1.000e-07
Number of eigenvalues below threshold      ... 0
Time for construction of square roots      ...    0.000 sec
Total time needed                          ...    0.001 sec

-------------------
DFT GRID GENERATION
-------------------

General Integration Accuracy     IntAcc      ... 4.388
Radial Grid Type                 RadialGrid  ... OptM3 with GC (2021)
Angular Grid (max. ang.)         AngularGrid ... 4 (Lebedev-302)
Angular grid pruning method      GridPruning ... 4 (adaptive)
Weight generation scheme         WeightScheme... mBecke (2022)
Basis function cutoff            BFCut       ... 1.0000e-12
Integration weight cutoff        WCut        ... 1.0000e-14
Partially contracted basis set               ... off
Rotationally invariant grid construction     ... off
Angular grids for H and He will be reduced by one unit

Total number of grid points                  ...    22074
Total number of batches                      ...      346
Average number of points per batch           ...       63
Average number of grid points per atom       ...     7358

---------------------
SHARK GRID GENERATION
---------------------

General Integration Accuracy     IntAcc      ... 4.388
Radial Grid Type                 RadialGrid  ... OptM3 with GC (2021)
Angular Grid (max. ang.)         AngularGrid ... 4 (Lebedev-302)
Angular grid pruning method      GridPruning ... 4 (adaptive)
Weight generation scheme         WeightScheme... mBecke (2022)
Basis function cutoff            BFCut       ... 1.0000e-12
Integration weight cutoff        WCut        ... 1.0000e-14
Partially contracted basis set               ... off
Rotationally invariant grid construction     ... off
Angular grids for H and He will be reduced by one unit
Core-polarized basis detected: some atoms will have their core
                               angular grid increased.
Steep s-basis detected: some atoms will have their radial
                        grid points doubled.

Total number of grid points                  ...    58004
Total number of batches                      ...      907
Average number of points per batch           ...       63
Average number of grid points per atom       ...    19335
Initializing property integral containers    ... done (  0.0 sec)

SHARK setup successfully completed in   1.2 seconds

Maximum memory used throughout the entire STARTUP-calculation: 27.4 MB
-------------------------------------------------------------------------------
                                 ORCA GUESS
                   Start orbitals & Density for SCF / CASSCF
-------------------------------------------------------------------------------

------------
SCF SETTINGS
------------
Hamiltonian:
 Ab initio Hamiltonian  Method          .... Hartree-Fock(GTOs)


General Settings:
 Integral files         IntName         .... AR3LD_4.4_3.2_4.0
 Hartree-Fock type      HFTyp           .... RHF
 Total Charge           Charge          ....    0
 Multiplicity           Mult            ....    1
 Number of Electrons    NEL             ....   54
 Basis Dimension        Dim             ....   81
 Nuclear Repulsion      ENuc            ....    135.4092315511 Eh

Convergence Acceleration:
 AO-DIIS                CNVDIIS         .... on
   Start iteration      DIISMaxIt       ....    12
   Startup error        DIISStart       ....  0.200000
   # of expansion vecs  DIISMaxEq       ....     5
   Bias factor          DIISBfac        ....   1.050
   Max. coefficient     DIISMaxC        ....  10.000
 MO-DIIS                CNVKDIIS        .... off
 Trust-Rad. Augm. Hess. CNVTRAH         .... auto
   Auto Start mean grad. ratio tolernc. ....  1.125000
   Auto Start start iteration           ....    50
   Auto Start num. interpolation iter.  ....    10
   Max. Number of Micro iterations      ....    24
   Max. Number of Macro iterations      .... Maxiter - #DIIS iter
   Number of Davidson start vectors     ....     2
   Converg. threshold    (grad. norm)   ....   2.000e-06
   Grad. Scal. Fac. for Micro threshold ....   0.100
   Minimum threshold for Micro iter.    ....   1.000e-02
   NR start threshold (gradient norm)   ....   1.000e-04
   Initial trust radius                 ....   0.400
   Minimum AH scaling param. (alpha)    ....   1.000
   Maximum AH scaling param. (alpha)    .... 1000.000
   Quad. conv. algorithm                .... NR
   White noise on init. David. guess    .... on
   Maximum white noise                  ....   0.010
   Pseudo random numbers                .... off
   Inactive MOs                         .... canonical
   Orbital update algorithm             .... Taylor
   Preconditioner                       .... Diag
   Full preconditioner red. dimension   ....   250
 SOSCF                  CNVSOSCF        .... on
   Start iteration      SOSCFMaxIt      ....   150
   Startup grad/error   SOSCFStart      ....  0.003300
   Hessian update       SOSCFHessUp     .... L-BFGS
 Level Shifting         CNVShift        .... on
   Level shift para.    LevelShift      ....    0.2500
   Turn off err/grad.   ShiftErr        ....    0.0010
 Zerner damping         CNVZerner       .... off
 Static damping         CNVDamp         .... on
   Fraction old density DampFac         ....    0.7000
   Max. Damping (<1)    DampMax         ....    0.9800
   Min. Damping (>=0)   DampMin         ....    0.0000
   Turn off err/grad.   DampErr         ....    0.1000

SCF Procedure:
 Maximum # iterations   MaxIter         ....   125
 SCF integral mode      SCFMode         .... Direct
   Integral package                     .... SHARK and LIBINT hybrid scheme
 Reset frequency        DirectResetFreq ....    20
 Integral Threshold     Thresh          ....  1.000e-12 Eh
 Primitive CutOff       TCut            ....  1.000e-14 Eh

Convergence Tolerance:
 Convergence Check Mode ConvCheckMode   .... Total+1el-Energy
 Convergence forced     ConvForced      .... 1
 Energy Change          TolE            ....  1.000e-09 Eh
 1-El. energy change                    ....  1.000e-06 Eh
 Orbital Gradient       TolG            ....  2.000e-06
 Orbital Rotation angle TolX            ....  2.000e-06
 DIIS Error             TolErr          ....  1.000e-08

------------------------------
INITIAL GUESS: MODEL POTENTIAL
------------------------------
Loading Hartree-Fock densities                     ... done
Calculating cut-offs                               ... done
Initializing the effective Hamiltonian             ... done
Setting up the integral package (SHARK)            ... done
Starting the Coulomb interaction                   ... done (   0.0 sec)
Making the grid                                    ... done (   0.0 sec)
Mapping shells                                     ... done
Starting the XC term evaluation                    ... done (   0.0 sec)
Transforming the Hamiltonian                       ... done (   0.0 sec)
Diagonalizing the Hamiltonian                      ... done (   0.0 sec)
Back transforming the eigenvectors                 ... done (   0.0 sec)
Now organizing SCF variables                       ... done
                      ------------------
                      INITIAL GUESS DONE (   0.1 sec)
                      ------------------
             **** ENERGY FILE WAS UPDATED (AR3LD_4.4_3.2_4.0.en.tmp) ****
Finished Guess after   0.1 sec
Maximum memory used throughout the entire GUESS-calculation: 6.6 MB

-------------------------------------------------------------------------------------------
                                      ORCA LEAN-SCF
                              memory conserving SCF solver
-------------------------------------------------------------------------------------------

----------------------------------------D-I-I-S--------------------------------------------
Iteration    Energy (Eh)           Delta-E    RMSDP     MaxDP     DIISErr   Damp  Time(sec)
-------------------------------------------------------------------------------------------
               ***  Starting incremental Fock matrix formation  ***
    1    -1580.3816540830489430     0.00e+00  1.05e-03  1.76e-02  9.29e-02  0.700   0.4
    2    -1580.3867918176292733    -5.14e-03  8.23e-04  1.28e-02  6.66e-02  0.700   0.3
                               ***Turning on AO-DIIS***
    3    -1580.3905221734235056    -3.73e-03  6.54e-04  9.39e-03  4.74e-02  0.700   0.4
    4    -1580.3932026415011478    -2.68e-03  1.61e-03  2.21e-02  3.33e-02  0.000   0.4
                              *** Initializing SOSCF ***
---------------------------------------S-O-S-C-F--------------------------------------
Iteration    Energy (Eh)           Delta-E    RMSDP     MaxDP     MaxGrad    Time(sec)
--------------------------------------------------------------------------------------
    5    -1580.3997364951790132    -6.53e-03  8.34e-05  1.00e-03  1.07e-03     0.3
               *** Restarting incremental Fock matrix formation ***
    6    -1580.3997450543738523    -8.56e-06  4.05e-05  5.42e-04  2.52e-04     0.5
    7    -1580.3997466002176679    -1.55e-06  1.49e-05  1.77e-04  6.02e-05     0.3
    8    -1580.3997466982918922    -9.81e-08  8.10e-07  1.52e-05  8.38e-06     0.3
    9    -1580.3997466987480038    -4.56e-10  1.51e-07  2.47e-06  1.21e-06     0.3
                 **** Energy Check signals convergence ****

               *****************************************************
               *                     SUCCESS                       *
               *           SCF CONVERGED AFTER   9 CYCLES          *
               *****************************************************

             **** ENERGY FILE WAS UPDATED (AR3LD_4.4_3.2_4.0.en.tmp) ****

----------------
TOTAL SCF ENERGY
----------------

Total Energy       :      -1580.39974669874800 Eh          -43004.86343 eV

Components:
Nuclear Repulsion  :        135.40923155112955 Eh            3684.67252 eV
Electronic Energy  :      -1715.80897824987755 Eh          -46689.53595 eV
One Electron Energy:      -2455.44082480589032 Eh          -66815.94170 eV
Two Electron Energy:        739.63184655601276 Eh           20126.40575 eV

Virial components:
Potential Energy   :      -3160.83904799058519 Eh          -86010.80320 eV
Kinetic Energy     :       1580.43930129183718 Eh           43005.93977 eV
Virial Ratio       :          1.99997497240605

---------------
SCF CONVERGENCE
---------------

  Last Energy change         ...    4.5611e-10  Tolerance :   1.0000e-09
  Last MAX-Density change    ...    2.4714e-06  Tolerance :   1.0000e-08
  Last RMS-Density change    ...    1.5068e-07  Tolerance :   1.0000e-09
  Last DIIS Error            ...    1.0718e-03  Tolerance :   1.0000e-08
  Last Orbital Gradient      ...    1.2066e-06  Tolerance :   2.0000e-06
  Last Orbital Rotation      ...    1.3531e-06  Tolerance :   2.0000e-06


----------------
ORBITAL ENERGIES
----------------

  NO   OCC          E(Eh)            E(eV) 
   0   2.0000    -118.610535     -3227.5567 
   1   2.0000    -118.608893     -3227.5121 
   2   2.0000    -118.608792     -3227.5093 
   3   2.0000     -12.322685      -335.3173 
   4   2.0000     -12.321265      -335.2787 
   5   2.0000     -12.321143      -335.2754 
   6   2.0000      -9.571275      -260.4476 
   7   2.0000      -9.571274      -260.4476 
   8   2.0000      -9.571272      -260.4475 
   9   2.0000      -9.569851      -260.4089 
  10   2.0000      -9.569842      -260.4087 
  11   2.0000      -9.569842      -260.4086 
  12   2.0000      -9.569738      -260.4058 
  13   2.0000      -9.569730      -260.4056 
  14   2.0000      -9.569727      -260.4055 
  15   2.0000      -1.281722       -34.8774 
  16   2.0000      -1.278799       -34.7979 
  17   2.0000      -1.275161       -34.6989 
  18   2.0000      -0.612970       -16.6798 
  19   2.0000      -0.598388       -16.2830 
  20   2.0000      -0.595219       -16.1967 
  21   2.0000      -0.592858       -16.1325 
  22   2.0000      -0.592071       -16.1111 
  23   2.0000      -0.589879       -16.0514 
  24   2.0000      -0.587985       -15.9999 
  25   2.0000      -0.586366       -15.9558 
  26   2.0000      -0.571283       -15.5454 
  27   0.0000       0.118502         3.2246 
  28   0.0000       0.127747         3.4762 
  29   0.0000       0.130068         3.5393 
  30   0.0000       0.132482         3.6050 
  31   0.0000       0.160304         4.3621 
  32   0.0000       0.169300         4.6069 
  33   0.0000       0.170636         4.6432 
  34   0.0000       0.177334         4.8255 
  35   0.0000       0.191081         5.1996 
  36   0.0000       0.203748         5.5443 
  37   0.0000       0.276778         7.5315 
*Only the first 10 virtual orbitals were printed.

                    ********************************
                    * MULLIKEN POPULATION ANALYSIS *
                    ********************************

-------------------------
MULLIKEN FRAGMENT CHARGES
-------------------------
 Fragment   0 :   0.000587
 Fragment   1 :  -0.000299
 Fragment   2 :  -0.000287
Sum of fragment charges:   -0.0000000

---------------------------------
MULLIKEN FRAGMENT OVERLAP CHARGES
---------------------------------
                  0          1          2    
      0      18.012689   0.002124  -0.028675
      1       0.002124  17.997887   0.002702
      2      -0.028675   0.002702  18.013274

-----------------------
MULLIKEN ATOMIC CHARGES
-----------------------
   0 Ar:    0.000587
   1 Ar:   -0.000299
   2 Ar:   -0.000287
Sum of atomic charges:   -0.0000000

--------------------------------
MULLIKEN REDUCED ORBITAL CHARGES
--------------------------------
  0 Ars       :     5.997583  s :     5.997583
      pz      :     3.999894  p :    12.001371
      px      :     3.999811
      py      :     4.001666
      dz2     :     0.000052  d :     0.000459
      dxz     :     0.000013
      dyz     :     0.000087
      dx2y2   :     0.000207
      dxy     :     0.000101

  1 Ars       :     5.999774  s :     5.999774
      pz      :     3.999997  p :    12.000338
      px      :     4.000316
      py      :     4.000025
      dz2     :     0.000042  d :     0.000187
      dxz     :     0.000007
      dyz     :     0.000001
      dx2y2   :     0.000099
      dxy     :     0.000039

  2 Ars       :     5.998075  s :     5.998075
      pz      :     3.999906  p :    12.001846
      px      :     4.000101
      py      :     4.001839
      dz2     :     0.000038  d :     0.000366
      dxz     :     0.000007
      dyz     :     0.000087
      dx2y2   :     0.000105
      dxy     :     0.000128



                     *******************************
                     * LOEWDIN POPULATION ANALYSIS *
                     *******************************

------------------------
LOEWDIN FRAGMENT CHARGES
------------------------
 Fragment   0 :  -0.000900
 Fragment   1 :   0.000905
 Fragment   2 :  -0.000005

----------------------------
LOEWDIN FRAGMENT BOND ORDERS
----------------------------
                  0          1          2    
      0      18.000900   0.029188   0.134985
      1       0.029188  17.999095   0.011153
      2       0.134985   0.011153  18.000005

----------------------
LOEWDIN ATOMIC CHARGES
----------------------
   0 Ar:   -0.000900
   1 Ar:    0.000905
   2 Ar:   -0.000005

-------------------------------
LOEWDIN REDUCED ORBITAL CHARGES
-------------------------------
  0 Ars       :     5.984601  s :     5.984601
      pz      :     3.999828  p :    12.011270
      px      :     4.003336
      py      :     4.008106
      dz2     :     0.001182  d :     0.005029
      dxz     :     0.000016
      dyz     :     0.000187
      dx2y2   :     0.002596
      dxy     :     0.001048

  1 Ars       :     5.996656  s :     5.996656
      pz      :     3.999973  p :    12.002268
      px      :     4.002141
      py      :     4.000154
      dz2     :     0.000039  d :     0.000172
      dxz     :     0.000001
      dyz     :     0.000000
      dx2y2   :     0.000111
      dxy     :     0.000021

  2 Ars       :     5.985900  s :     5.985900
      pz      :     3.999793  p :    12.009192
      px      :     4.000537
      py      :     4.008861
      dz2     :     0.001140  d :     0.004913
      dxz     :     0.000015
      dyz     :     0.000187
      dx2y2   :     0.002517
      dxy     :     0.001054



                      *****************************
                      * MAYER POPULATION ANALYSIS *
                      *****************************

  NA   - Mulliken gross atomic population
  ZA   - Total nuclear charge
  QA   - Mulliken gross atomic charge
  VA   - Mayer's total valence
  BVA  - Mayer's bonded valence
  FA   - Mayer's free valence

  ATOM       NA         ZA         QA         VA         BVA        FA
  0 Ar    17.9994    18.0000     0.0006    -0.0016    -0.0016    -0.0000
  1 Ar    18.0003    18.0000    -0.0003     0.0065     0.0065    -0.0000
  2 Ar    18.0003    18.0000    -0.0003    -0.0021    -0.0021    -0.0000

  Mayer bond orders larger than 0.100000
  => no bond orders to print

-------
TIMINGS
-------

Total SCF time: 0 days 0 hours 0 min 3 sec 

Total time                  ....       3.245 sec
Sum of individual times     ....       3.237 sec  ( 99.8%)

SCF preparation             ....       0.034 sec  (  1.1%)
Fock matrix formation       ....       3.178 sec  ( 97.9%)
  Startup                   ....       0.001 sec  (  0.0% of F)
  Coulomb+Exchange Fock     ....       3.174 sec  ( 99.9% of F)
Diagonalization             ....       0.000 sec  (  0.0%)
Density matrix formation    ....       0.003 sec  (  0.1%)
Total Energy calculation    ....       0.001 sec  (  0.0%)
Population analysis         ....       0.004 sec  (  0.1%)
Orbital Transformation      ....       0.004 sec  (  0.1%)
Orbital Orthonormalization  ....       0.000 sec  (  0.0%)
DIIS solution               ....       0.008 sec  (  0.2%)
SOSCF solution              ....       0.005 sec  (  0.1%)
Finished LeanSCF after   3.2 sec

Maximum memory used throughout the entire LEANSCF-calculation: 8.6 MB

------------------------------------------------------------------------------
                         ORCA PROPERTY INTEGRAL CALCULATIONS
------------------------------------------------------------------------------

GBWName                                   ... AR3LD_4.4_3.2_4.0.gbw
Number of atoms                           ...      3
Number of basis functions                 ...    150
Max core memory                           ...   1024 MB

Dipole integrals                          ... YES
Quadrupole integrals                      ...  NO
Linear momentum integrals                 ... YES
Angular momentum integrals                ... YES
Higher moments length integrals           ...  NO
Higher moments velocity integrals         ...  NO
Kinetic energy integrals                  ...  NO
GIAO right hand sides                     ...  NO
GIAO dipole derivative integrals          ...  NO
SOC integrals                             ...  NO
EPR diamagnetic integrals (GIAO)          ...  NO
EPR gauge integrals                       ...  NO
Field gradient integrals                  ...  NO (   0 nuclei)
Spin-dipole/Fermi contact integrals       ...  NO (   0 nuclei)
Contact density integrals                 ...  NO (   0 nuclei)
Nucleus-orbit integrals                   ...  NO (   0 nuclei)
Geometric perturbations                   ...  NO (   3 nuclei)

Choice of electric origin   ... Center of mass
Position of electric origin ... (  3.0614,  1.9415,  0.0000) 
Choice of magnetic origin   ... GIAO
Position of magnetic origin ... (  0.0000,  0.0000,  0.0000) 

Calculating integrals                     ... Electric Dipole (Length)     done (  0.0 sec)
Calculating integrals                     ... Linear Momentum              done (  0.0 sec)
Calculating integrals                     ... Angular Momentum  (ElOri)    done (  0.0 sec)

Property integrals calculated in   0.0 sec

Maximum memory used throughout the entire PROPINT-calculation: 6.7 MB


--------------------------------------------------------------------------------
                             ORCA-MATRIX DRIVEN CI
--------------------------------------------------------------------------------


Wavefunction type
-----------------
Correlation treatment                      ...      CCSD     
Single excitations                         ... ON
Orbital optimization                       ... OFF
Calculation of Z vector                    ... OFF
Calculation of Brueckner orbitals          ... OFF
Perturbative triple excitations            ... OFF
Calculation of F12 correction              ... OFF
Frozen core treatment                      ... chemical core (30 el)
Reference Wavefunction                     ... RHF
  Internal Orbitals:    15 ...   26 ( 12 MO's/ 24 electrons)
  Virtual  Orbitals:    27 ...   80 ( 54 MO's              )
Number of AO's                             ...     81
Number of electrons                        ...     54
Number of correlated electrons             ...     24

Algorithmic settings
--------------------
Integral transformation                    ... All integrals via the RI transformation
K(C) Formation                             ... RI-DLPNO
   PNO-Integral Storage                    ... ON DISK
   PNO occupation number cut-off           ... 3.330e-07
   Singles PNO occupation number cut-off   ... 9.990e-09
   PNO Mulliken prescreening cut-off       ... 1.000e-03
   Domain cut-off (Mulliken population)    ... 1.000e-03
   PNO Normalization                       ...    1
Maximum number of iterations               ...        50
Convergence tolerance (max. residuum)      ... 1.000e-06
Level shift for amplitude update           ... 2.000e-01
Maximum number of DIIS vectors             ...         7
DIIS turned on at iteration                ...         0
Damping before turning on DIIS             ...     0.500
Damping after turning on DIIS              ...     0.000
Pair specific amplitude update             ... OFF
Natural orbital iterations                 ... OFF
Perturbative natural orbital generation    ... OFF
Printlevel                                 ... 2

Singles Fock matrix elements calculated using PNOs.

Memory handling:
----------------
Maximum memory for working arrays          ...    512 MB
Data storage in matrix containers          ... UNCOMPRESSED
Data type for integral storage             ... DOUBLE
In-Core Storage of quantities:
   Amplitudes+Sigma Vector      ... NO
   J+K operators                ... NO
   DIIS vectors                 ... NO
   3-external integrals         ... NO
   4-external integrals         ... NO

Localization treatment:
-----------------------
Localization option                        ...    2
Localization threshhold                    ... -1.0e+00
Using relative localization threshhold     ... 1.0e-08
Neglect threshold for strong pairs         ... 1.000e-05 Eh
Prescreening threshold for very weak pairs ... 1.000e-07 Eh
Using randomized seed for localization     ... on

Initializing the integral package          ... done
Localizing the valence orbitals
Localizing the valence orbitals
------------------------------------------------------------------------------
                           ORCA ORBITAL LOCALIZATION
------------------------------------------------------------------------------

Input orbitals are from                  ... AR3LD_4.4_3.2_4.0.proc0.gbw
Output orbitals are to                   ... AR3LD_4.4_3.2_4.0.proc0.loc
Max. number of iterations                ... 128
Localizations seeded randomly            ... on
Convergence tolerance                    ... 2.000e-07
Using relative localization threshhold   ... 1.000e-08
Threshold for strong local MOs           ... 9.500e-01
Threshold for bond MOs                   ... 8.500e-01
Operator                                 ... 0
Orbital range for localization           ... 15 to 26
Localization criterion                   ... FOSTER-BOYS
Doing the dipole integrals     ... o.k.
Entering Jacobi type localization:
Using Cholesky decomposition as initial guess.
Initial value of the localization sum :   217.125566
ITERATION   0 : L=  223.8790348762 DL=  6.75e+00 (MAX-T)=  45.000 
ITERATION   1 : L=  223.8843852689 DL=  5.35e-03 (MAX-T)=   1.990 
ITERATION   2 : L=  223.8848309283 DL=  4.46e-04 (MAX-T)=   0.553 
ITERATION   3 : L=  223.8852044974 DL=  3.74e-04 (MAX-T)=   0.478 
ITERATION   4 : L=  223.8856492589 DL=  4.45e-04 (MAX-T)=   0.559 
ITERATION   5 : L=  223.8860629400 DL=  4.14e-04 (MAX-T)=   0.607 
ITERATION   6 : L=  223.8865923944 DL=  5.29e-04 (MAX-T)=   0.564 
ITERATION   7 : L=  223.8870742860 DL=  4.82e-04 (MAX-T)=   0.483 
ITERATION   8 : L=  223.8873676690 DL=  2.93e-04 (MAX-T)=   0.395 
ITERATION   9 : L=  223.8878125777 DL=  4.45e-04 (MAX-T)=   0.458 
ITERATION  10 : L=  223.8883027044 DL=  4.90e-04 (MAX-T)=   0.484 
ITERATION  11 : L=  223.8887474620 DL=  4.45e-04 (MAX-T)=   0.548 
ITERATION  12 : L=  223.8890934799 DL=  3.46e-04 (MAX-T)=   0.515 
ITERATION  13 : L=  223.8894120063 DL=  3.19e-04 (MAX-T)=   0.404 
ITERATION  14 : L=  223.8896601812 DL=  2.48e-04 (MAX-T)=   0.458 
ITERATION  15 : L=  223.8900752271 DL=  4.15e-04 (MAX-T)=   0.444 
ITERATION  16 : L=  223.8904095925 DL=  3.34e-04 (MAX-T)=   0.406 
ITERATION  17 : L=  223.8907317212 DL=  3.22e-04 (MAX-T)=   0.463 
ITERATION  18 : L=  223.8910864298 DL=  3.55e-04 (MAX-T)=   0.413 
ITERATION  19 : L=  223.8913932641 DL=  3.07e-04 (MAX-T)=   0.331 
ITERATION  20 : L=  223.8916628794 DL=  2.70e-04 (MAX-T)=   0.370 
ITERATION  21 : L=  223.8919586173 DL=  2.96e-04 (MAX-T)=   0.342 
ITERATION  22 : L=  223.8921993124 DL=  2.41e-04 (MAX-T)=   0.371 
ITERATION  23 : L=  223.8924794819 DL=  2.80e-04 (MAX-T)=   0.357 
ITERATION  24 : L=  223.8927029972 DL=  2.24e-04 (MAX-T)=   0.289 
ITERATION  25 : L=  223.8929646735 DL=  2.62e-04 (MAX-T)=   0.329 
ITERATION  26 : L=  223.8932082780 DL=  2.44e-04 (MAX-T)=   0.288 
ITERATION  27 : L=  223.8934580104 DL=  2.50e-04 (MAX-T)=   0.304 
ITERATION  28 : L=  223.8936729062 DL=  2.15e-04 (MAX-T)=   0.262 
ITERATION  29 : L=  223.8939065021 DL=  2.34e-04 (MAX-T)=   0.308 
ITERATION  30 : L=  223.8941517599 DL=  2.45e-04 (MAX-T)=   0.323 
ITERATION  31 : L=  223.8944002770 DL=  2.49e-04 (MAX-T)=   0.328 
ITERATION  32 : L=  223.8946254441 DL=  2.25e-04 (MAX-T)=   0.391 
ITERATION  33 : L=  223.8948829453 DL=  2.58e-04 (MAX-T)=   0.364 
ITERATION  34 : L=  223.8951384280 DL=  2.55e-04 (MAX-T)=   0.364 
ITERATION  35 : L=  223.8953694464 DL=  2.31e-04 (MAX-T)=   0.400 
ITERATION  36 : L=  223.8955986080 DL=  2.29e-04 (MAX-T)=   0.391 
ITERATION  37 : L=  223.8958512998 DL=  2.53e-04 (MAX-T)=   0.412 
ITERATION  38 : L=  223.8961562761 DL=  3.05e-04 (MAX-T)=   0.344 
ITERATION  39 : L=  223.8964588067 DL=  3.03e-04 (MAX-T)=   0.385 
ITERATION  40 : L=  223.8966721794 DL=  2.13e-04 (MAX-T)=   0.406 
ITERATION  41 : L=  223.8970674481 DL=  3.95e-04 (MAX-T)=   0.493 
ITERATION  42 : L=  223.8972695737 DL=  2.02e-04 (MAX-T)=   0.472 
ITERATION  43 : L=  223.8975717217 DL=  3.02e-04 (MAX-T)=   0.475 
ITERATION  44 : L=  223.8979220633 DL=  3.50e-04 (MAX-T)=   0.383 
ITERATION  45 : L=  223.8982112723 DL=  2.89e-04 (MAX-T)=   0.436 
ITERATION  46 : L=  223.8984926545 DL=  2.81e-04 (MAX-T)=   0.436 
ITERATION  47 : L=  223.8987775652 DL=  2.85e-04 (MAX-T)=   0.491 
ITERATION  48 : L=  223.8991177211 DL=  3.40e-04 (MAX-T)=   0.433 
ITERATION  49 : L=  223.8993482966 DL=  2.31e-04 (MAX-T)=   0.423 
ITERATION  50 : L=  223.8997997016 DL=  4.51e-04 (MAX-T)=   0.521 
ITERATION  51 : L=  223.9000861788 DL=  2.86e-04 (MAX-T)=   0.461 
ITERATION  52 : L=  223.9003903793 DL=  3.04e-04 (MAX-T)=   0.480 
ITERATION  53 : L=  223.9006782330 DL=  2.88e-04 (MAX-T)=   0.448 
ITERATION  54 : L=  223.9010079859 DL=  3.30e-04 (MAX-T)=   0.423 
ITERATION  55 : L=  223.9013139869 DL=  3.06e-04 (MAX-T)=   0.516 
ITERATION  56 : L=  223.9016243029 DL=  3.10e-04 (MAX-T)=   0.497 
ITERATION  57 : L=  223.9020666444 DL=  4.42e-04 (MAX-T)=   0.585 
ITERATION  58 : L=  223.9024066865 DL=  3.40e-04 (MAX-T)=   0.481 
ITERATION  59 : L=  223.9027060352 DL=  2.99e-04 (MAX-T)=   0.416 
ITERATION  60 : L=  223.9031167191 DL=  4.11e-04 (MAX-T)=   0.467 
ITERATION  61 : L=  223.9033851704 DL=  2.68e-04 (MAX-T)=   0.492 
ITERATION  62 : L=  223.9036476665 DL=  2.62e-04 (MAX-T)=   0.373 
ITERATION  63 : L=  223.9039588310 DL=  3.11e-04 (MAX-T)=   0.507 
ITERATION  64 : L=  223.9042473451 DL=  2.89e-04 (MAX-T)=   0.432 
ITERATION  65 : L=  223.9045892967 DL=  3.42e-04 (MAX-T)=   0.479 
ITERATION  66 : L=  223.9048943259 DL=  3.05e-04 (MAX-T)=   0.475 
ITERATION  67 : L=  223.9051779507 DL=  2.84e-04 (MAX-T)=   0.494 
ITERATION  68 : L=  223.9054570923 DL=  2.79e-04 (MAX-T)=   0.401 
ITERATION  69 : L=  223.9056496533 DL=  1.93e-04 (MAX-T)=   0.435 
ITERATION  70 : L=  223.9059189762 DL=  2.69e-04 (MAX-T)=   0.408 
ITERATION  71 : L=  223.9061935858 DL=  2.75e-04 (MAX-T)=   0.478 
ITERATION  72 : L=  223.9064641729 DL=  2.71e-04 (MAX-T)=   0.381 
ITERATION  73 : L=  223.9067334172 DL=  2.69e-04 (MAX-T)=   0.373 
ITERATION  74 : L=  223.9069745209 DL=  2.41e-04 (MAX-T)=   0.418 
ITERATION  75 : L=  223.9071802399 DL=  2.06e-04 (MAX-T)=   0.405 
ITERATION  76 : L=  223.9073653660 DL=  1.85e-04 (MAX-T)=   0.269 
ITERATION  77 : L=  223.9075594711 DL=  1.94e-04 (MAX-T)=   0.425 
ITERATION  78 : L=  223.9077187397 DL=  1.59e-04 (MAX-T)=   0.320 
ITERATION  79 : L=  223.9079238398 DL=  2.05e-04 (MAX-T)=   0.375 
ITERATION  80 : L=  223.9080681106 DL=  1.44e-04 (MAX-T)=   0.318 
ITERATION  81 : L=  223.9081865889 DL=  1.18e-04 (MAX-T)=   0.276 
ITERATION  82 : L=  223.9083769460 DL=  1.90e-04 (MAX-T)=   0.311 
ITERATION  83 : L=  223.9085259861 DL=  1.49e-04 (MAX-T)=   0.286 
ITERATION  84 : L=  223.9086849740 DL=  1.59e-04 (MAX-T)=   0.373 
ITERATION  85 : L=  223.9088054119 DL=  1.20e-04 (MAX-T)=   0.336 
ITERATION  86 : L=  223.9089546605 DL=  1.49e-04 (MAX-T)=   0.266 
ITERATION  87 : L=  223.9090551744 DL=  1.01e-04 (MAX-T)=   0.299 
ITERATION  88 : L=  223.9091716456 DL=  1.16e-04 (MAX-T)=   0.251 
ITERATION  89 : L=  223.9092763301 DL=  1.05e-04 (MAX-T)=   0.277 
ITERATION  90 : L=  223.9093849540 DL=  1.09e-04 (MAX-T)=   0.262 
ITERATION  91 : L=  223.9094771122 DL=  9.22e-05 (MAX-T)=   0.269 
ITERATION  92 : L=  223.9095447399 DL=  6.76e-05 (MAX-T)=   0.200 
ITERATION  93 : L=  223.9096315620 DL=  8.68e-05 (MAX-T)=   0.256 
ITERATION  94 : L=  223.9096902208 DL=  5.87e-05 (MAX-T)=   0.245 
ITERATION  95 : L=  223.9097484420 DL=  5.82e-05 (MAX-T)=   0.181 
ITERATION  96 : L=  223.9097916621 DL=  4.32e-05 (MAX-T)=   0.198 
ITERATION  97 : L=  223.9098381180 DL=  4.65e-05 (MAX-T)=   0.223 
ITERATION  98 : L=  223.9099098558 DL=  7.17e-05 (MAX-T)=   0.208 
ITERATION  99 : L=  223.9099731859 DL=  6.33e-05 (MAX-T)=   0.164 
ITERATION 100 : L=  223.9100216003 DL=  4.84e-05 (MAX-T)=   0.158 
ITERATION 101 : L=  223.9100439957 DL=  2.24e-05 (MAX-T)=   0.165 
ITERATION 102 : L=  223.9100741097 DL=  3.01e-05 (MAX-T)=   0.179 
ITERATION 103 : L=  223.9101111870 DL=  3.71e-05 (MAX-T)=   0.150 
ITERATION 104 : L=  223.9101449670 DL=  3.38e-05 (MAX-T)=   0.137 
ITERATION 105 : L=  223.9101653873 DL=  2.04e-05 (MAX-T)=   0.164 
ITERATION 106 : L=  223.9102030351 DL=  3.76e-05 (MAX-T)=   0.140 
ITERATION 107 : L=  223.9102295126 DL=  2.65e-05 (MAX-T)=   0.149 
ITERATION 108 : L=  223.9102498741 DL=  2.04e-05 (MAX-T)=   0.110 
ITERATION 109 : L=  223.9102627111 DL=  1.28e-05 (MAX-T)=   0.119 
ITERATION 110 : L=  223.9102874714 DL=  2.48e-05 (MAX-T)=   0.141 
ITERATION 111 : L=  223.9103087828 DL=  2.13e-05 (MAX-T)=   0.119 
ITERATION 112 : L=  223.9103279412 DL=  1.92e-05 (MAX-T)=   0.113 
ITERATION 113 : L=  223.9103418965 DL=  1.40e-05 (MAX-T)=   0.112 
ITERATION 114 : L=  223.9103571312 DL=  1.52e-05 (MAX-T)=   0.092 
ITERATION 115 : L=  223.9103705582 DL=  1.34e-05 (MAX-T)=   0.109 
ITERATION 116 : L=  223.9103834487 DL=  1.29e-05 (MAX-T)=   0.101 
ITERATION 117 : L=  223.9103973938 DL=  1.39e-05 (MAX-T)=   0.087 
ITERATION 118 : L=  223.9104056435 DL=  8.25e-06 (MAX-T)=   0.064 
ITERATION 119 : L=  223.9104154002 DL=  9.76e-06 (MAX-T)=   0.082 
ITERATION 120 : L=  223.9104255372 DL=  1.01e-05 (MAX-T)=   0.073 
ITERATION 121 : L=  223.9104326428 DL=  7.11e-06 (MAX-T)=   0.064 
ITERATION 122 : L=  223.9104408199 DL=  8.18e-06 (MAX-T)=   0.072 
ITERATION 123 : L=  223.9104463783 DL=  5.56e-06 (MAX-T)=   0.066 
ITERATION 124 : L=  223.9104529932 DL=  6.61e-06 (MAX-T)=   0.062 
ITERATION 125 : L=  223.9104566878 DL=  3.69e-06 (MAX-T)=   0.060 
ITERATION 126 : L=  223.9104634633 DL=  6.78e-06 (MAX-T)=   0.054 
ITERATION 127 : L=  223.9104693810 DL=  5.92e-06 (MAX-T)=   0.063 
MAXIMUM NO OF ITERATIONS EXCEEDED - LOCALIZATION NOT CONVERGED


--------------------------------------------------------------------------------
                    LOCALIZED MOLECULAR ORBITAL COMPOSITIONS
--------------------------------------------------------------------------------

The Mulliken populations for each LMO on each atom are computed
The LMO`s will be ordered according to atom index and type
  (A) Strongly localized MO`s have populations of >=0.950 on one atom
  (B) Two center bond orbitals have populations of >=0.850 on two atoms
  (C) Other MO`s are considered to be `delocalized`

FOUND  -  12 strongly local MO`s
       -   0 two center bond MO`s
       -   0 significantly delocalized MO`s

Rather strongly localized orbitals:
MO  26:   2Ar -   1.000275
MO  25:   2Ar -   1.000913
MO  24:   2Ar -   1.000225
MO  23:   2Ar -   1.000095
MO  22:   1Ar -   0.999622
MO  21:   1Ar -   0.999933
MO  20:   1Ar -   0.999871
MO  19:   1Ar -   0.999895
MO  18:   0Ar -   0.999938
MO  17:   0Ar -   1.000236
MO  16:   0Ar -   1.000229
MO  15:   0Ar -   1.000866
Localized MO's were stored in: AR3LD_4.4_3.2_4.0.proc0.loc

Localizing the core orbitals
Localization sum:   271.857274879 
------------------------------------------------------------------------------
                           ORCA ORBITAL LOCALIZATION
------------------------------------------------------------------------------

Input orbitals are from                  ... AR3LD_4.4_3.2_4.0.proc0.loc
Output orbitals are to                   ... AR3LD_4.4_3.2_4.0.proc0.loc
Max. number of iterations                ... 128
Localizations seeded randomly            ... on
Convergence tolerance                    ... 2.000e-07
Using relative localization threshhold   ... 1.000e-08
Threshold for strong local MOs           ... 9.500e-01
Threshold for bond MOs                   ... 8.500e-01
Operator                                 ... 0
Orbital range for localization           ... 0 to 14
Localization criterion                   ... FOSTER-BOYS
Doing the dipole integrals     ... o.k.
Entering Jacobi type localization:
Using Cholesky decomposition as initial guess.
Initial value of the localization sum :   271.400810
ITERATION   0 : L=  271.8552834851 DL=  4.54e-01 (MAX-T)=  45.000 
ITERATION   1 : L=  271.8572650246 DL=  1.98e-03 (MAX-T)=   5.556 
ITERATION   2 : L=  271.8572743397 DL=  9.32e-06 (MAX-T)=   0.434 
ITERATION   3 : L=  271.8572748794 DL=  5.40e-07 (MAX-T)=   0.110 
LOCALIZATION SUM CONVERGED


--------------------------------------------------------------------------------
                    LOCALIZED MOLECULAR ORBITAL COMPOSITIONS
--------------------------------------------------------------------------------

The Mulliken populations for each LMO on each atom are computed
The LMO`s will be ordered according to atom index and type
  (A) Strongly localized MO`s have populations of >=0.950 on one atom
  (B) Two center bond orbitals have populations of >=0.850 on two atoms
  (C) Other MO`s are considered to be `delocalized`

FOUND  -  15 strongly local MO`s
       -   0 two center bond MO`s
       -   0 significantly delocalized MO`s

Rather strongly localized orbitals:
MO  14:   2Ar -   1.000028
MO  13:   2Ar -   1.000000
MO  12:   2Ar -   1.000019
MO  11:   2Ar -   1.000012
MO  10:   2Ar -   1.000017
MO   9:   1Ar -   1.000007
MO   8:   1Ar -   1.000006
MO   7:   1Ar -   1.000005
MO   6:   1Ar -   1.000000
MO   5:   1Ar -   1.000004
MO   4:   0Ar -   1.000017
MO   3:   0Ar -   1.000031
MO   2:   0Ar -   1.000025
MO   1:   0Ar -   1.000000
MO   0:   0Ar -   1.000017
Localized MO's were stored in: AR3LD_4.4_3.2_4.0.proc0.loc

Warning: reference  - re-canonicalizations have been set to INT 1 VIRT 1
Warning: internal orbitals are localized - no re-canonicalization of internal orbitals
Warning: UsePNO is turned on - no re-canonicalization of internal and virtual orbitals
Fock densities were made 
Making Fock matrix and reference energy:

--------------------------
CLOSED-SHELL FOCK OPERATOR
--------------------------

Time needed for Fock operator              ...            1.256 sec
Reference energy                           ...  -1580.399746699

--------------
DLPNO SETTINGS (2015 fully linear scaling implementation)
--------------

TCutMKN:           1.000e-03
TCutPAO:           1.000e-03
TCutPNO:           3.330e-07
TCutPNOSingles:    9.990e-09
TCutEN:            9.700e-01
TCutPAOExt:        1.000e-01
TCutPairs:         1.000e-05
TCutPre:           1.000e-07
TCutOSV:           1.000e-06
TCutDOij:          1.000e-05
TCutDO:            1.000e-02
TCutC:             1.000e-04
TCutCPAO:          1.000e-03
TCutCMO:           1.000e-03
TScaleDOMP2PreScr: 2.000e+00
TScaleMKNMP2PreScr:1.000e+01
TScalePNOMP2PreScr:1.000e+00
PAO overlap thresh 1.000e-08
Using PNOs for Singles Fock computation
Use new domains
Use fully linear algorithm

--------------------------
Mulliken population of the LMOs            ... ok
Performing proximity check                 ... No problems found
Calculating differential overlap integrals ... ok

------------------------
PRESCREENING OF HF PAIRS
------------------------

   .... Finished loop over pairs

                  ============================================
                    30 of   78 PAIRS WERE SKIPPED as HF PAIRS
                  ============================================

Total time spent in skipping HF pairs                 ...     0.000 sec
--------------------------
ELECTRON PAIR PRESCREENING
--------------------------

Dipole-based pair screening          .... used

   TCutDOij = 1.000000e-05
   TCutPre  = 1.000000e-07
   .... Finished loop over pairs
Total time spent in the prescreening                  ...     0.000 sec
sum of pair energies estimated for screened out pairs ...       0.000000000000 Eh
Thresholds for map construction and integral transformation for crude MP2:
   TCutMKN                    ...     1.0e-02
   TCutDO                     ...     2.0e-02
   TCutPairs                  ...     1.0e-05
   TCutPNO_CrudeMP2           ...     3.3e-07
   TCutPNOSingles_CrudeMP2    ...     1.0e-08
--------------------------------
LOCAL RI TRANSFORMATION (IAVPAO)
--------------------------------

Orbital window:      15 to 26
Number of PAOs:      81
Basis functions:     81 (33 shells)
Aux. functions:     276 (84 shells)
Use SHARK:           on
Have SHARK:         yes

Processing maps (0.0 sec)
Average map sizes:
   Aux shells -> MOs              12.0
   Aux shells -> PAOs             81.0
   MOs        -> AO shells        31.2
   PAOs       -> AO shells        33.0

Calculating integrals (0.2 sec, 2.050 MB)
Sorting integrals (0.0 sec, 2.047 MB)
Total time for the integral transformation: 0.2 sec
--------------------------------
INITIAL GUESS AND PNO GENERATION
--------------------------------

Populations of internal orbitals onto Fragments:
  15:      1.001    0.000    0.001  assigned to fragment   1
  16:      1.000    0.000    0.000  assigned to fragment   1
  17:      1.000    0.000    0.000  assigned to fragment   1
  18:      1.000    0.000    0.000  assigned to fragment   1
  19:      0.000    1.000    0.000  assigned to fragment   2
  20:      0.000    1.000    0.000  assigned to fragment   2
  21:      0.000    1.000    0.000  assigned to fragment   2
  22:      0.000    1.000    0.000  assigned to fragment   2
  23:      0.000    0.000    1.000  assigned to fragment   3
  24:      0.000    0.000    1.000  assigned to fragment   3
  25:      0.001    0.000    1.001  assigned to fragment   3
  26:      0.000    0.000    1.000  assigned to fragment   3

Summary assignment:
   4 orbitals assigned to fragment   1
   4 orbitals assigned to fragment   2
   4 orbitals assigned to fragment   3

PNO truncation parameters                   .... 
    PAOOverlapThresh   =        1.000e-08

Pair selection                          .... 
  modified with fragment specific keywords
  Pairs will be selected according to these
  intra(inter)fragment cutoffs
  1 <-> 1
    Intrafragment pairs 1 <-> 1 neglected for CCSD
  1 <-> 2
    TCutPairs          =        1.000e-05
    TCutPNO            =        3.330e-07
    TCutMKN            =        1.000e-02
    TCutDO             =        2.000e-02
    TCutPNOSingles     =        9.990e-09
    TCutMP2Pairs       =        1.000e-06
  1 <-> 3
    TCutPairs          =        1.000e-05
    TCutPNO            =        3.330e-07
    TCutMKN            =        1.000e-02
    TCutDO             =        2.000e-02
    TCutPNOSingles     =        9.990e-09
    TCutMP2Pairs       =        1.000e-06
  2 <-> 2
    Intrafragment pairs 2 <-> 2 neglected for CCSD
  2 <-> 3
    TCutPairs          =        1.000e-05
    TCutPNO            =        3.330e-07
    TCutMKN            =        1.000e-02
    TCutDO             =        2.000e-02
    TCutPNOSingles     =        9.990e-09
    TCutMP2Pairs       =        1.000e-06
  3 <-> 3
    Intrafragment pairs 3 <-> 3 neglected for CCSD

Type of local MP2 treatment                 .... semi-local MP2
Strategy for PNO selection                  .... occupation number selection
Pair density normalization                  .... MP2 norm
Spin component scaling                      .... not used

   .... Finished loop over pairs
Making pair pair interaction lists          ... done

                       ===========================
                         45 OF   60 PAIRS ARE KEPT CCSD PAIRS
                          3 OF   60 PAIRS ARE KEPT MP2 PAIRS
                         12 OF   60 PAIRS ARE SKIPPED
                       ===========================

Total time spent in the initial guess                 ...     0.324 sec
SL-MP2 correlation energy (all non-screened pairs)    ...      -0.002281885952 Eh

Initial PNO correlation energy                        ...      -0.002198250013 Eh
sum of pair energies prescreened and skipped MP2 pairs...       0.000000000000 Eh
sum of pair energies of crude MP2 skipped pairs only  ...       0.000000000000 Eh
sum of MP2 pair energies for pairs that were not kept ...      -0.000026908188 Eh
sum of PNO error estimates for the kept pairs         ...      -0.000056727751 Eh
                                                          --------------------
sum of all corrections                                         -0.000083635939
Initial total correlation energy                               -0.002281885952
Thresholds for map construction and integral transformation for fine MP2 and CCSD(T) calculation:
   TCutMKN   ...     1.0e-03
   TCutDO    ...     1.0e-02
   TCutPairs ...     1.0e-05
   TCutCMO   ...     1.0e-03
   TCutCPAO  ...     1.0e-03

--------------------------------
LOCAL RI TRANSFORMATION (IAVPAO)
--------------------------------

Orbital window:      15 to 26
Number of PAOs:      81
Basis functions:     81 (33 shells)
Aux. functions:     276 (84 shells)
Use SHARK:           on
Have SHARK:         yes

Processing maps (0.0 sec)
Average map sizes:
   Aux shells -> MOs              12.0
   Aux shells -> PAOs             81.0
   MOs        -> AO shells        31.2
   PAOs       -> AO shells        33.0

Calculating integrals (0.2 sec, 2.050 MB)
Sorting integrals (0.0 sec, 2.047 MB)
Total time for the integral transformation: 0.2 sec
--------------------------------
INITIAL GUESS AND PNO GENERATION
--------------------------------

Populations of internal orbitals onto Fragments:
  15:      1.001    0.000    0.001  assigned to fragment   1
  16:      1.000    0.000    0.000  assigned to fragment   1
  17:      1.000    0.000    0.000  assigned to fragment   1
  18:      1.000    0.000    0.000  assigned to fragment   1
  19:      0.000    1.000    0.000  assigned to fragment   2
  20:      0.000    1.000    0.000  assigned to fragment   2
  21:      0.000    1.000    0.000  assigned to fragment   2
  22:      0.000    1.000    0.000  assigned to fragment   2
  23:      0.000    0.000    1.000  assigned to fragment   3
  24:      0.000    0.000    1.000  assigned to fragment   3
  25:      0.001    0.000    1.001  assigned to fragment   3
  26:      0.000    0.000    1.000  assigned to fragment   3

Summary assignment:
   4 orbitals assigned to fragment   1
   4 orbitals assigned to fragment   2
   4 orbitals assigned to fragment   3

PNO truncation parameters                   .... 
    PAOOverlapThresh   =        1.000e-08

Pair selection                          .... 
  modified with fragment specific keywords
  Pairs will be selected according to these
  intra(inter)fragment cutoffs
  1 <-> 1
    Intrafragment pairs 1 <-> 1 neglected for CCSD
  1 <-> 2
    TCutPairs          =        1.000e-05
    TCutPNO            =        3.330e-07
    TCutMKN            =        1.000e-03
    TCutDO             =        1.000e-02
    TCutPNOSingles     =        9.990e-09
    TCutMP2Pairs       =        1.000e-06
  1 <-> 3
    TCutPairs          =        1.000e-05
    TCutPNO            =        3.330e-07
    TCutMKN            =        1.000e-03
    TCutDO             =        1.000e-02
    TCutPNOSingles     =        9.990e-09
    TCutMP2Pairs       =        1.000e-06
  2 <-> 2
    Intrafragment pairs 2 <-> 2 neglected for CCSD
  2 <-> 3
    TCutPairs          =        1.000e-05
    TCutPNO            =        3.330e-07
    TCutMKN            =        1.000e-03
    TCutDO             =        1.000e-02
    TCutPNOSingles     =        9.990e-09
    TCutMP2Pairs       =        1.000e-06
  3 <-> 3
    Intrafragment pairs 3 <-> 3 neglected for CCSD

Type of local MP2 treatment                 .... semi-local MP2
Strategy for PNO selection                  .... occupation number selection
Pair density normalization                  .... MP2 norm
Spin component scaling                      .... not used

   .... Finished loop over pairs

 PNO Occupation Number Statistics: 
  | Av. % of trace(Dij) retained        ...  98.733475245727
  | sigma^2 in % of trace(Dij) retained ...   2.51e-01
  | Av. % of trace(Di) retained         ...  99.999945040789
  | sigma^2 in % of trace(Di) retained  ...   5.15e-10
 Distributions of % trace(Dij) recovered:
  |   [90.0, 99.0) ...    29 ( 64.4 % of all pairs)
  |   [99.0, 99.9) ...    16 ( 35.6 % of all pairs)
 Distributions of % trace(Di) recovered :
  |       >= 99.9  ...    12 (100.0 % of all I-pairs )

Making pair pair interaction lists          ... done

                       ===========================
                         45 OF   60 PAIRS ARE KEPT
                       ===========================

Total time spent in the initial guess                 ...     0.361 sec
SL-MP2 correlation energy (all non-screened pairs)    ...      -0.002281890345 Eh

Initial PNO correlation energy                        ...      -0.002198254137 Eh
sum of pair energies estimated for screened out pairs ...       0.000000000000 Eh
sum of MP2 pair energies for pairs that were not kept ...      -0.000026908188 Eh
sum of PNO error estimates for the kept pairs         ...      -0.000056728020 Eh
                                                          --------------------
sum of all corrections                                         -0.000083636208
Initial total correlation energy                               -0.002281890345
Thresholds for map construction and integral transformation for fine MP2 and CCSD(T) calculation:
   TCutMKN   ...     1.0e-03
   TCutDO    ...     1.0e-02
   TCutPairs ...     1.0e-05
   TCutCMO   ...     1.0e-03
   TCutCPAO  ...     1.0e-03

Time for aux screen maps:            0.000
Time for maps after fine MP2:            0.001
-----------------------------
LOCAL RI TRANSFORMATION (IJV)
-----------------------------

Orbital window:      15 to 26
Basis functions:     81 (33 shells)
Aux. functions:     276 (84 shells)
Use SHARK:           on

Processing maps (0.0 sec)
Average map sizes:
   Aux shells -> MOs(i)           12.0
   Aux shells -> MOs(j)           12.0
   MOs        -> AO shells        31.2

Calculating integrals NOTE: Switching SHARK to General Contraction for MDCI
      If that is not desired please turn off the PGCFlag in the input (%shark PGCFlag 0 end)
(0.6 sec, 0.306 MB)
Sorting integrals (0.0 sec, 0.303 MB)
Total time for the integral transformation: 0.6 sec
--------------------------------
LOCAL RI TRANSFORMATION (VABPAO)
--------------------------------

Number of PAOs:      81
Basis functions:     81 (33 shells)
Aux. functions:     276 (84 shells)
Use SHARK:           on

Processing maps (0.0 sec)
Average map sizes:
   Aux shells -> PAOs             81.0
   PAOs       -> AO shells        33.0

Calculating integrals NOTE: Switching SHARK to General Contraction for MDCI
      If that is not desired please turn off the PGCFlag in the input (%shark PGCFlag 0 end)
(0.4 sec, 13.819 MB)
Finished


-------------------------------------
Pair Pair Term precalculation with     
RI-(ij|mn) and (im|jn) transformation  
ON THE FLY                             
-------------------------------------

   IBatch   1 (of   1)              ... done (    0.241 sec)
Total EXT                           ...           0.241 sec

IAVPA Available = YES
VABPAO Available= YES
IJV Available   = YES
IJK Available   = NO
PNO3i Available = YES
PNO3j Available = YES
PNO4 Available  = YES
---------------------
RI-PNO TRANSFORMATION
---------------------

Total Number of PNOs                   ...   311
Average number of PNOs per pair        ...     6
Maximal number of PNOs per pair        ...    10
   #pairs with  1 -  5 PNOs   :    0
   #pairs with  6 - 10 PNOs   :   45
   #pairs with 11 - 15 PNOs   :    0
   #pairs with 16 - 20 PNOs   :    0
   #pairs with 21 - 25 PNOs   :    0
   #pairs with 26 - 30 PNOs   :    0
   #pairs with 31 - 35 PNOs   :    0
   #pairs with 36 - 40 PNOs   :    0
   #pairs with 41 - 45 PNOs   :    0
   #pairs with 46 - 50 PNOs   :    0

Generation of (ij|ab)[P] integrals            ... on
Generation of (ia|bc)[P],(ja|bc)[P] integrals ... on
Storage of 3 and 4 external integrals         ... on
Generation of ALL (ka|bc)[P] integrals        ... on
Keep RI integrals in memory                   ... off

Ibatch:  1 (of  1)
Starting 2-4 index PNO integral generation ... done

Timings:
Total PNO integral transformation time     ...          0.189 sec
Size of the 3-external file                ...         0 MB
Size of the 4-external file                ...         0 MB
Size of the IKJL file                      ...         0 MB
Size of the all 3-external file            ...         0 MB
Size of the 1-external file                ...         0 MB

Making pair/pair overlap matrices          ... done (    0.028 sec)
Size of the pair overlap file              ... 1 MB
Redoing the guess amplitudes               ... done (    0.000 sec)

-------------------------
FINAL STARTUP INFORMATION
-------------------------

E(0)                                       ...  -1580.399746699
E(SL-MP2)                                  ...     -0.002281890
E(SL-MP2) including corrections            ...     -0.002281890
Initial E(tot)                             ...  -1580.402028589
<T|T>                                      ...      0.000834224
Number of pairs included                   ... 45
Total number of pairs                      ... 78

------------------------------------------------
                  RHF COUPLED CLUSTER ITERATIONS
------------------------------------------------

Number of PNO amplitudes to be optimized   ...         2217
Number of non-PNO amplitudes               ...       131220
Untruncated number of regular amplitudes   ...       227448

Iter       E(tot)           E(Corr)          Delta-E          Residual     Time
  0  -1580.402028361     -0.002198026      0.000083865      0.000588637    0.04
                           *** Turning on DIIS ***
  1  -1580.401936068     -0.002105733      0.000092292      0.000125809    0.03
  2  -1580.401946324     -0.002115989     -0.000010256      0.000031631    0.03
  3  -1580.401946992     -0.002116657     -0.000000668      0.000011091    0.03
  4  -1580.401947209     -0.002116874     -0.000000216      0.000001420    0.04
  5  -1580.401947236     -0.002116901     -0.000000027      0.000000251    0.04
               --- The Coupled-Cluster iterations have converged ---

----------------------
COUPLED CLUSTER ENERGY
----------------------

E(0)                                       ...  -1580.399746699
E(CORR)(strong-pairs)                      ...     -0.002116901
E(CORR)(weak-pairs)                        ...     -0.000083636
E(CORR)(corrected)                         ...     -0.002200537
E(TOT)                                     ...  -1580.401947236
Singles Norm <S|S>**1/2                    ...      0.001400984  
T1 diagnostic                              ...      0.000285975  

------------------
LARGEST AMPLITUDES
------------------
  25-> 27  15-> 27       0.001849
  22-> 27  18-> 27       0.001482
  25-> 30  15-> 27       0.001365
  25-> 27  15-> 30       0.001326
  22-> 32  18-> 27       0.001214
  26-> 27  15-> 27       0.001203
  24-> 27  15-> 27       0.001182
  22-> 27  18-> 32       0.001178
  25-> 27  18-> 27       0.001161
  26-> 28  16-> 28       0.001151
  23-> 28  18-> 28       0.001150
  25-> 27  16-> 27       0.001136
  25-> 27  17-> 27       0.001125
  26-> 28  17-> 28       0.001123
  24-> 28  18-> 28       0.001112
  24-> 28  17-> 28       0.001098


 ===========================================================
         LOCAL ENERGY DECOMPOSITION FOR DLPNO-CC METHODS
 ===========================================================

Maximum Iterations for the Localization .. 600
Tolerance for the Localization          ..  1.00e-06
Number of fragments = 3
Fragment  1:  0
Fragment  2:  1
Fragment  3:  2

Populations of internal orbitals onto Fragments:
   0:      1.000    0.000    0.000  assigned to fragment   1
   1:      1.000    0.000    0.000  assigned to fragment   1
   2:      1.000    0.000    0.000  assigned to fragment   1
   3:      1.000    0.000    0.000  assigned to fragment   1
   4:      1.000    0.000    0.000  assigned to fragment   1
   5:      0.000    1.000    0.000  assigned to fragment   2
   6:      0.000    1.000    0.000  assigned to fragment   2
   7:      0.000    1.000    0.000  assigned to fragment   2
   8:      0.000    1.000    0.000  assigned to fragment   2
   9:      0.000    1.000    0.000  assigned to fragment   2
  10:      0.000    0.000    1.000  assigned to fragment   3
  11:      0.000    0.000    1.000  assigned to fragment   3
  12:      0.000    0.000    1.000  assigned to fragment   3
  13:      0.000    0.000    1.000  assigned to fragment   3
  14:      0.000    0.000    1.000  assigned to fragment   3
  15:      1.001    0.000    0.001  assigned to fragment   1
  16:      1.000    0.000    0.000  assigned to fragment   1
  17:      1.000    0.000    0.000  assigned to fragment   1
  18:      1.000    0.000    0.000  assigned to fragment   1
  19:      0.000    1.000    0.000  assigned to fragment   2
  20:      0.000    1.000    0.000  assigned to fragment   2
  21:      0.000    1.000    0.000  assigned to fragment   2
  22:      0.000    1.000    0.000  assigned to fragment   2
  23:      0.000    0.000    1.000  assigned to fragment   3
  24:      0.000    0.000    1.000  assigned to fragment   3
  25:      0.001    0.000    1.001  assigned to fragment   3
  26:      0.000    0.000    1.000  assigned to fragment   3

Summary assignment:
   9 orbitals assigned to fragment   1
   9 orbitals assigned to fragment   2
   9 orbitals assigned to fragment   3


--------------------------------
CORRELATION ENERGY DECOMPOSITION
--------------------------------


--------------------------------------------------
INTER- vs INTRA-FRAGMENT CORRELATION ENERGIES (Eh)
--------------------------------------------------

                                   Fragment   1            Fragment   2            Fragment   3            
                         ----------------------  ----------------------  ----------------------  
Intra strong pairs               0.000000000000         0.000000000000         0.000000000000  sum=        0.000000000000
Intra weak pairs                 0.000000000000         0.000000000000         0.000000000000  sum=        0.000000000000
Singles contribution             0.000000000035         0.000000000020         0.000000000050  sum=        0.000000000105
                         ----------------------  ----------------------  ----------------------  
                                 0.000000000035         0.000000000020         0.000000000050  sum=        0.000000000105


Interaction correlation for Fragments   2 and   1:
--------------------------------------------------
Inter strong pairs               -0.000395991463 (   -0.248 kcal/mol)
Inter weak pairs                 -0.000008245811 (   -0.005 kcal/mol)
                          ----------------------
Total interaction                -0.000404237273 (   -0.254 kcal/mol)

Interaction correlation for Fragments   3 and   1:
--------------------------------------------------
Inter strong pairs               -0.001534891569 (   -0.963 kcal/mol)
Inter weak pairs                 -0.000046289967 (   -0.029 kcal/mol)
                          ----------------------
Total interaction                -0.001581181536 (   -0.992 kcal/mol)
Interaction correlation for Fragments   3 and   2:
--------------------------------------------------
Inter strong pairs               -0.000186018141 (   -0.117 kcal/mol)
Inter weak pairs                 -0.000029100430 (   -0.018 kcal/mol)
                          ----------------------
Total interaction                -0.000215118571 (   -0.135 kcal/mol)



Sum of INTRA-fragment correlation energies  =         0.000000000105
Sum of INTER-fragment correlation energies  =        -0.002200537380
                                              ---------------------
Total correlation energy                    =        -0.002200537275

---------------------------------------------
DECOMPOSITION OF CCSD STRONG PAIRS INTO      
    DOUBLE EXCITATION TYPES (Eh)             
---------------------------------------------

Foster-Boys localization is used for localizing PNOs

Intra fragment contributions: 
INTRA Fragment 1                        0.000000000 
INTRA Fragment 2                        0.000000000 
INTRA Fragment 3                        0.000000000 

Charge transfer contributions: 
Charge Transfer 1 to 2                 -0.000003868 
Charge Transfer 1 to 3                 -0.000083164 
Charge Transfer 2 to 1                 -0.000003980 
Charge Transfer 2 to 3                 -0.000000362 
Charge Transfer 3 to 1                 -0.000085868 
Charge Transfer 3 to 2                 -0.000000319 

Dispersion contributions: 
Dispersion  2,1                        -0.000388143 
Dispersion  3,1                        -0.001365860 
Dispersion  3,2                        -0.000185336 

Singles contributions:                   
Singles energy                          0.000000000 
 
Delocalized contributions: 
Delocalized correlation                 0.000000000 

#Time for LED analysis ..       0.0 (sec)



--------------------------------------------------------------------------------
                                    TIMINGS
--------------------------------------------------------------------------------


Total execution time                   ...        5.092 sec

Localization of occupied MO's          ...        0.156 sec (  3.1%)
Fock Matrix Formation                  ...        1.256 sec ( 24.7%)
Global overlap, Fock, MKN matrices     ...        0.190 sec (  3.7%)
Differential overlap integrals         ...        0.377 sec (  7.4%)
Organizing maps                        ...        0.004 sec (  0.1%)
RI 3-index integral generations        ...        1.393 sec ( 27.4%)
RI-PNO integral transformation         ...        0.460 sec (  9.0%)
Initial Guess                          ...        0.701 sec ( 13.8%)
DIIS Solver                            ...        0.003 sec (  0.0%)
State Vector Update                    ...        0.000 sec (  0.0%)
Sigma-vector construction              ...        0.209 sec (  4.1%)
  <D|H|D>(0-ext)                       ...        0.026 sec ( 12.3% of sigma)
  <D|H|D>(2-ext)                       ...        0.052 sec ( 25.1% of sigma)
  <D|H|D>(4-ext)                       ...        0.002 sec (  0.8% of sigma)
  <D|H|D>(4-ext-corr)                  ...        0.006 sec (  2.8% of sigma)
  CCSD doubles correction              ...        0.005 sec (  2.2% of sigma)
  <S|H|S>                              ...        0.015 sec (  7.3% of sigma)
  <S|H|D>(1-ext)                       ...        0.012 sec (  5.8% of sigma)
  <S|H|D>(3-ext)                       ...        0.001 sec (  0.7% of sigma)
  Fock-dressing                        ...        0.053 sec ( 25.5% of sigma)
  Singles amplitudes                   ...        0.003 sec (  1.3% of sigma)
  (ik|jl)-dressing                     ...        0.016 sec (  7.6% of sigma)
  (ij|ab),(ia|jb)-dressing             ...        0.015 sec (  6.9% of sigma)
Local Energy Decomposition             ...        0.012 sec (  0.2% of ALL)


Maximum memory used throughout the entire MDCI-calculation: 65.6 MB
----------------------------   ----------------
Inter-fragment dispersion       -0.002022975
----------------------------   ----------------


-------------------------   --------------------
FINAL SINGLE POINT ENERGY     -1580.401769673988 
-------------------------   --------------------


------------------------------------------------------------------------------
                              ORCA PROPERTY CALCULATIONS
------------------------------------------------------------------------------

GBWName                                 ... AR3LD_4.4_3.2_4.0.gbw
Number of atoms                         ...      3
Number of basis functions               ...    150
Max core memory                         ...   1024 MB

Electric properties:
Dipole moment                           ... YES
Quadrupole moment                       ...  NO
Static polarizability (Dipole/Dipole)   ...  NO
Static polarizability (Dipole/Quad.)    ...  NO
Static polarizability (Quad./Quad.)     ...  NO
Static polarizability (Velocity)        ...  NO

Atomic electric properties:
Dipole moment                           ...  NO
Quadrupole moment                       ...  NO
Static polarizability                   ...  NO

Choice of electric origin               ... Center of mass
Position of electric origin             ...     3.061356     1.941550     0.000000

General magnetic properties:
Magnetizability                         ...  NO

EPR properties:
g-Tensor (aka g-matrix)                 ...  NO
Zero-Field splitting spin-orbit         ...  NO
Zero-field splitting spin-spin          ...  NO
Hyperfine couplings                     ...  NO (   0 nuclei)
Quadrupole couplings                    ...  NO (   0 nuclei)
Contact density                         ...  NO (   0 nuclei)

NMR properties:
Chemical shifts                         ...  NO (   0 nuclei)
Spin-rotation constants                 ...  NO (   0 nuclei)
Spin-spin couplings                     ...  NO (   0 nuclei,    0 pairs)

Choice of magnetic origin               ... GIAO
Position of magnetic origin             ...     0.000000     0.000000     0.000000

Properties with geometric perturbations:
SCF Hessian                             ...  NO
IR spectrum                             ...  NO
VCD spectrum                            ...  NO
X-ray spectroscopy properties:
SCF XES/XAS/RIXS spectra                ...  NO


-------------
DIPOLE MOMENT
-------------

Method             : SCF
Type of density    : Electron Density
Multiplicity       :   1
Irrep              :   0
Energy             : -1580.3997466987480038 Eh
Relativity type    : 
Basis              : AO
                                X                 Y                 Z
Electronic contribution:      0.000356508      -0.000518120       0.000000000
Nuclear contribution   :     -0.000000000      -0.000000000       0.000000000
                        -----------------------------------------
Total Dipole Moment    :      0.000356508      -0.000518120       0.000000000
                        -----------------------------------------
Magnitude (a.u.)       :      0.000628925
Magnitude (Debye)      :      0.001598600



--------------------
Rotational spectrum 
--------------------
 
Rotational constants in cm-1:             0.085474             0.041118             0.027762 
Rotational constants in MHz :          2562.437851          1232.682316           832.298237 

Dipole components along the rotational axes: 
x,y,z [a.u.] :    -0.000572    -0.000262     0.000000 
x,y,z [Debye]:    -0.001453    -0.000667     0.000000 

 

Dipole moment calculation done in   0.0 sec 

Maximum memory used throughout the entire PROP-calculation: 6.8 MB

--------------------------------
SUGGESTED CITATIONS FOR THIS RUN
--------------------------------

Below you find a list of papers that are relevant to this ORCA run
We neither can nor want to force you to cite these papers, but we appreciate if you do
You receive ORCA, which is the product of decades of hard work by many enthusiastic individuals, for free
The only thing we kindly ask in return is that you cite our papers,
We deeply appreciate it, if you show your appreciation for ORCA by not just citing the generic ORCA reference.

Please note that relegating all ORCA citations to the supporting information does *not* help us.
SI sections are not indexed - citations you put there will not count into any citation statistics
But we need these citations in order to attract the funding resources that allow us to do what we are doing

Therefore, if you are a happy ORCA user, please consider citing a few of the papers listed below in the main body of your paper

In addition to the list printed below, the program has created the file AR3LD_4.4_3.2_4.0.bibtex that contains the list in bibtex format
You can import this file easily into all common literature databanks and citation aid programs


List of essential papers. We consider these as the minimum necessary citations

  1. Neese,F.
     Software update: the ORCA program system, version 5.0
     WIRES Comput. Molec. Sci., 2022 12(1)e1606
     doi.org/10.1002/wcms.1606

List of papers to cite with high priority. The work reported in these papers was absolutely
necessary for this run to complete.
Our perspective: the developers of density functionals and basis sets usually get cited in chemistry papers
Good! But without the algorithms to do something with them, the functionals or basis sets would not do anything.
Hence, in our opinion, the algorithm design and method developments papers are equally worthy of getting cited

  1. Neese,F.; Hansen,A.; Liakos,D.G.
     Efficient and accurate approximations to the local coupled cluster singles doubles method using a truncated pair natural orbital basis
     J. Chem. Phys., 2009 131 064103
     doi.org/10.1063/1.3173827
  2. Neese,F.; Wennmohs,F.; Hansen,A.
     Efficient and accurate local approximations to coupled-electron pair approaches: An attempt to revive the pair natural orbital method
     J. Chem. Phys., 2009 130 114108
     doi.org/10.1063/1.3086717
  3. Riplinger,C.; Neese,F.
     An efficient and near linear scaling pair natural orbital based local coupled cluster method
     J. Chem. Phys., 2013 138(3)Art. No. 034106
     doi.org/10.1063/1.4773581
  4. Datta,D.; Kossmann,S.; Neese,F.
     Analytic energy derivatives for the calculation of the first-order molecular properties using the domain-based local pair-natural orbital coupled-cluster theory
     J. Chem. Phys., 2016 145 
     doi.org/10.1063/1.4962369
  5. Riplinger,C.; Pinski,P.; Becker,U.; Valeev,E.F.; Neese,F.
     Sparse maps-A systematic infrastructure for reduced-scaling electronic structure methods. II. Linear scaling domain based pair natural orbital coupled cluster theory
     J. Chem. Phys., 2016 144 
     doi.org/10.1063/1.4939030
  6. Schneider,W.B.; Bistoni,G.; Sparta,M.; Saitow,M.; Riplinger,C.; Auer,A.A.; Neese,F.
     Decomposition of Intermolecular Interaction Energies within the Local Pair Natural Orbital Coupled Cluster Framework
     J. Theo. Comp. Chem., 2016 12 4778-4792
     doi.org/10.1021/acs.jctc.6b00523
  7. Bistoni,G.; Riplinger,C.; Minenkov,Y.; Cavallo,L.; Auer,A.A.; Neese,F.
     Treating Subvalence Correlation Effects in Domain Based Pair Natural Orbital Coupled Cluster Calculations: An Out-of-the-Box Approach
     J. Theo. Comp. Chem., 2017 13 3220-3227
     doi.org/10.1021/acs.jctc.7b00352
  8. Altun,A.; Neese,F.; Bistoni,G.
     HFLD: A Nonempirical London Dispersion-Corrected Hartree-Fock Method for the Quantification and Analysis of Noncovalent Interaction Energies of Large Molecular Systems
     J. Chem. Theory Comput., 2019 15 5894-5907
     doi.org/10.1021/acs.jctc.9b00425
  9. Neese,F.
     The SHARK Integral Generation and Digestion System
     J. Comp. Chem., 2022  1-16
     doi.org/10.1002/jcc.26942
 10. Altun,A.; Neese,F.; Bistoni,G.
     Open-Shell Variant of the London Dispersion-Corrected Hartree–Fock Method (HFLD) for the Quantification and Analysis of Noncovalent Interaction Energies
     J. Chem. Theory Comput., 2022 XX XXXX-XXXX
     doi.org/10.1021/acs.jctc.1c01295

List of suggested additional citations. These are papers that are important in the 'surrounding' of 
of this run, or papers that preceded the highly important papers. If you like your results we are grateful for a citation.

  1. Neese,F.
     The ORCA program system
     WIRES Comput. Molec. Sci., 2012 2(1)73-78
     doi.org/10.1002/wcms.81
  2. Neese,F.
     Software update: the ORCA program system, version 4.0
     WIRES Comput. Molec. Sci., 2018 8(1)1-6
     doi.org/10.1002/wcms.1327
  3. Neese,F.; Wennmohs,F.; Becker,U.; Riplinger,C.
     The ORCA quantum chemistry program package
     J. Chem. Phys., 2020 152 Art. No. L224108
     doi.org/10.1063/5.0004608
  4. Bistoni,G.
     Finding chemical concepts in the Hilbert space: Coupled cluster analyses of noncovalent interactions
     WIRES Comput. Molec. Sci., 2020 10(3)e1442
     doi.org/10.1002/wcms.1442

List of optional additional citations

  1. Neese,F.
     Approximate second-order SCF convergence for spin unrestricted wavefunctions
     Chem. Phys. Lett., 2000 325(1-3)93-98
     doi.org/10.1016/s0009-2614(00)00662-x

Timings for individual modules:

Sum of individual times          ...        9.940 sec (=   0.166 min)
Startup calculation              ...        1.260 sec (=   0.021 min)  12.7 %
SCF iterations                   ...        3.386 sec (=   0.056 min)  34.1 %
Property integrals               ...        0.108 sec (=   0.002 min)   1.1 %
Property calculations            ...        0.060 sec (=   0.001 min)   0.6 %
MDCI module                      ...        5.127 sec (=   0.085 min)  51.6 %
                             ****ORCA TERMINATED NORMALLY****
TOTAL RUN TIME: 0 days 0 hours 0 minutes 9 seconds 984 msec
