
                                 *****************
                                 * O   R   C   A *
                                 *****************

                                            #,                                       
                                            ###                                      
                                            ####                                     
                                            #####                                    
                                            ######                                   
                                           ########,                                 
                                     ,,################,,,,,                         
                               ,,#################################,,                 
                          ,,##########################################,,             
                       ,#########################################, ''#####,          
                    ,#############################################,,   '####,        
                  ,##################################################,,,,####,       
                ,###########''''           ''''###############################       
              ,#####''   ,,,,##########,,,,          '''####'''          '####       
            ,##' ,,,,###########################,,,                        '##       
           ' ,,###''''                  '''############,,,                           
         ,,##''                                '''############,,,,        ,,,,,,###''
      ,#''                                            '''#######################'''  
     '                                                          ''''####''''         
             ,#######,   #######,   ,#######,      ##                                
            ,#'     '#,  ##    ##  ,#'     '#,    #''#        ,####,   ,####,        
            ##       ##  ##   ,#'  ##            #'  '#       #'       #'  '#        
            ##       ##  #######   ##           ,######,      #####,   #    #        
            '#,     ,#'  ##    ##  '#,     ,#' ,#      #,     #,   #   #,  ,#        
             '#######'   ##     ##  '#######'  #'      '#     '####' # '####'        



                #########################################################
                #                        -***-                          #
                #          Department of theory and spectroscopy        #
                #                                                       #
                #                      Frank Neese                      #
                #                                                       #
                #     Directorship, Architecture, Infrastructure        #
                #                    SHARK, DRIVERS                     #
                #        Core code/Algorithms in most modules           #
                #                                                       #
                #        Max Planck Institute fuer Kohlenforschung      #
                #                Kaiser Wilhelm Platz 1                 #
                #                 D-45470 Muelheim/Ruhr                 #
                #                      Germany                          #
                #                                                       #
                #                  All rights reserved                  #
                #                        -***-                          #
                #########################################################


                         Program Version 6.0.0  -   RELEASE  -


 With contributions from (in alphabetic order):
   Daniel Aravena         : Magnetic Suceptibility
   Michael Atanasov       : Ab Initio Ligand Field Theory (pilot matlab implementation)
   Alexander A. Auer      : GIAO ZORA, VPT2 properties, NMR spectrum
   Ute Becker             : All parallelization in ORCA, NUMFREQ, NUMCALC
   Giovanni Bistoni       : ED, misc. LED, open-shell LED, HFLD
   Martin Brehm           : Molecular dynamics
   Dmytro Bykov           : pre 5.0 version of the SCF Hessian
   Marcos Casanova-Páez   : Triplet and SCS-CIS(D). UHF-(DLPNO)-IP/EA/STEOM-CCSD. UHF-CVS-IP/STEOM-CCSD
   Vijay G. Chilkuri      : MRCI spin determinant printing, contributions to CSF-ICE
   Pauline Colinet        : FMM embedding
   Dipayan Datta          : RHF DLPNO-CCSD density
   Achintya Kumar Dutta   : EOM-CC, STEOM-CC
   Nicolas Foglia         : Exact transition moments, OPA infrastructure, MCD improvements
   Dmitry Ganyushin       : Spin-Orbit,Spin-Spin,Magnetic field MRCI
   Miquel Garcia          : C-PCM and meta-GGA Hessian, CCSD/C-PCM, Gaussian charge scheme
   Tiago L. C. Gouveia    : GS-ROHF, GS-ROCIS
   Yang Guo               : DLPNO-NEVPT2, F12-NEVPT2, CIM, IAO-localization
   Andreas Hansen         : Spin unrestricted coupled pair/coupled cluster methods
   Ingolf Harden          : AUTO-CI MPn and infrastructure 
   Benjamin Helmich-Paris : MC-RPA, TRAH-(SCF,CASSCF), AVAS, COSX integrals, SCF dyn. polar.
   Lee Huntington         : MR-EOM, pCC
   Robert Izsak           : Overlap fitted RIJCOSX, COSX-SCS-MP3, EOM
   Riya Kayal             : Wick's Theorem for AUTO-CI, AUTO-CI UHF-CCSDT
   Emily Kempfer          : AUTO-CI, RHF CISDT and CCSDT
   Christian Kollmar      : KDIIS, OOCD, Brueckner-CCSD(T), CCSD density, CASPT2, CASPT2-K, improved NEVPT2
   Axel Koslowski         : Symmetry handling
   Simone Kossmann        : Meta GGA functionals, TD-DFT gradient, OOMP2, (MP2 Hessian; deprecated post 5.0)
   Lucas Lang             : DCDCAS
   Marvin Lechner         : AUTO-CI (C++ implementation), FIC-MRCC
   Spencer Leger          : CASSCF response
   Dagmar Lenk            : GEPOL surface, SMD, ORCA-2-JSON
   Dimitrios Liakos       : Extrapolation schemes; Compound Job, initial MDCI parallelization
   Dimitrios Manganas     : Further ROCIS development; embedding schemes. LFT, Crystal Embedding
   Dimitrios Pantazis     : SARC Basis sets
   Anastasios Papadopoulos: AUTO-CI, single reference methods and gradients
   Taras Petrenko         : pre 6.0 DFT Hessian and TD-DFT gradient, (ASA, deprecated), ECA, 1-Electron XAS/XES, NRVS
   Peter Pinski           : DLPNO-MP2, DLPNO-MP2 Gradient
   Christoph Reimann      : Effective Core Potentials
   Marius Retegan         : Local ZFS, SOC
   Christoph Riplinger    : Optimizer, TS searches, QM/MM, DLPNO-CCSD(T), (RO)-DLPNO pert. Triples
   Michael Roemelt        : Original ROCIS implementation
   Masaaki Saitow         : Open-shell DLPNO-CCSD energy and density
   Barbara Sandhoefer     : DKH picture change effects
   Kantharuban Sivalingam : CASSCF convergence/infrastructure, NEVPT2 and variants, FIC-MRCI
   Bernardo de Souza      : ESD, SOC TD-DFT
   Georgi Stoychev        : AutoAux, RI-MP2 NMR, DLPNO-MP2 response, X2C
   Van Anh Tran           : RI-MP2 g-tensors
   Willem Van den Heuvel  : Paramagnetic NMR
   Zikuan Wang            : NOTCH, Electric field optimization 
   Frank Wennmohs         : Technical directorship and infrastructure
   Hang Xu                : AUTO-CI-Response properties 


 We gratefully acknowledge several colleagues who have allowed us to
 interface, adapt or use parts of their codes:
   Stefan Grimme, W. Hujo, H. Kruse, P. Pracht,  : VdW corrections, initial TS optimization,
                  C. Bannwarth, S. Ehlert,         DFT functionals, gCP, sTDA/sTD-DF
                  L. Wittmann, M. Mueller
   Ed Valeev, F. Pavosevic, A. Kumar             : LibInt (2-el integral package), F12 methods
   Garnet Chan, S. Sharma, J. Yang, R. Olivares  : DMRG
   Ulf Ekstrom                                   : XCFun DFT Library
   Mihaly Kallay                                 : mrcc  (arbitrary order and MRCC methods)
   Frank Weinhold                                : gennbo (NPA and NBO analysis)
   Simon Mueller                                 : openCOSMO-RS
   Christopher J. Cramer and Donald G. Truhlar   : smd solvation model
   Lars Goerigk                                  : TD-DFT with DH, B97 family of functionals
   V. Asgeirsson, H. Jonsson                     : NEB implementation
   FAccTs GmbH                                   : IRC, NEB, NEB-TS, DLPNO-Multilevel, CI-OPT
                                                   MM, QMMM, 2- and 3-layer-ONIOM, Crystal-QMMM,
                                                   LR-CPCM, SF, NACMEs, symmetry and pop. for TD-DFT,
                                                   nearIR, NL-DFT gradient (VV10), updates on ESD,
                                                   ML-optimized integration grids, MBIS, APM,
                                                   GOAT, DOCKER, SOLVATOR, interface openCOSMO-RS
   S Lehtola, MJT Oliveira, MAL Marques          : LibXC Library
   Liviu Ungur et al                             : ANISO software


 Your calculation uses the libint2 library for the computation of 2-el integrals
 For citations please refer to: http://libint.valeyev.net

 Your ORCA version has been built with support for libXC version: 6.2.2
 For citations please refer to: https://libxc.gitlab.io

 This ORCA versions uses:
   CBLAS   interface :  Fast vector & matrix operations
   LAPACKE interface :  Fast linear algebra routines
   SCALAPACK package :  Parallel linear algebra routines
   Shared memory     :  Shared parallel matrices
   BLAS/LAPACK       :  OpenBLAS 0.3.27  USE64BITINT DYNAMIC_ARCH NO_AFFINITY Haswell SINGLE_THREADED
        Core in use  :  Haswell
   Copyright (c) 2011-2014, The OpenBLAS Project


================================================================================

----- Orbital basis set information -----
Your calculation utilizes the basis: aug-cc-pVDZ 
    H, B-Ne : Obtained from the ccRepo (grant-hill.group.shef.ac.uk/ccrepo) Feb. 2017
              R. A. Kendall, T. H. Dunning, Jr., R. J. Harrison, J. Chem. Phys. 96, 6796 (1992)
         He : Obtained from the ccRepo (grant-hill.group.shef.ac.uk/ccrepo) Feb. 2017
              D. E. Woon, T. H. Dunning, Jr., J. Chem. Phys. 100, 2975 (1994)
  Li-Be, Na : Obtained from the ccRepo (grant-hill.group.shef.ac.uk/ccrepo) Feb. 2017
              B. P. Prascher, D. E. Woon, K. A. Peterson, T. H. Dunning, Jr., A. K. Wilson, Theor. Chem. Acc. 128, 69 (2011)
         Mg : Obtained from the Peterson Research Group Website (tyr0.chem.wsu.edu/~kipeters) Feb. 2017
              B. P. Prascher, D. E. Woon, K. A. Peterson, T. H. Dunning, Jr., A. K. Wilson, Theor. Chem. Acc. 128, 69 (2011)
      Al-Ar : Obtained from the ccRepo (grant-hill.group.shef.ac.uk/ccrepo) Feb. 2017
              D. E. Woon, T. H. Dunning, Jr., J. Chem. Phys. 98, 1358 (1993)
      Sc-Zn : Obtained from the ccRepo (grant-hill.group.shef.ac.uk/ccrepo) Feb. 2017
              N. B. Balabanov, K. A. Peterson, J. Chem. Phys. 123, 064107 (2005)
              N. B. Balabanov, K. A. Peterson, J. Chem. Phys. 125, 074110 (2006)
      Ga-Kr : Obtained from the ccRepo (grant-hill.group.shef.ac.uk/ccrepo) Feb. 2017
              A. K. Wilson, D. E. Woon, K. A. Peterson, T. H. Dunning, Jr., J. Chem. Phys. 110, 7667 (1999)

----- AuxC basis set information -----
Your calculation utilizes the auxiliary basis: aug-cc-pVDZ/C 
  H-He, B, Ne, Al-Ar, Ga-Ge, Se-Br : Obtained from the EMSL Basis Set Exchange (bse.pnl.gov) Feb. 2017
                                     F. Weigend, A. Kohn, C. Hattig, J. Chem. Phys. 116, 3175 (2002)
                            Be, Mg : Obtained from the TURBOMOLE 7.0 basis set library
                                     C. Haettig, Phys. Chem. Chem. Phys. 7, 59 (2005)
                               C-F : Obtained from the EMSL Basis Set Exchange (bse.pnl.gov) Feb. 2017
                                     C. Haettig, Phys. Chem. Chem. Phys. 7, 59 (2005)
                                     F. Weigend, A. Kohn, C. Hattig, J. Chem. Phys. 116, 3175 (2002)
                                As : Obtained from the EMSL Basis Set Exchange (bse.pnl.gov) Feb. 2017
                                     C. Haettig, G. Schmitz, J. Kossmann, Phys. Chem. Chem. Phys. 14, 6549 (2012)
                                Kr : Obtained from the TURBOMOLE 7.0 basis set library
                                     F. Weigend, A. Kohn, C. Hattig, J. Chem. Phys. 116, 3175 (2002)
                                     S function revised in Sep. 2009

================================================================================
                                        WARNINGS
                       Please study these warnings very carefully!
================================================================================


WARNING: Post HF methods need fully converged wavefunctions
  ===> : Setting SCFConvForced true
         You can overwrite this default with %scf ConvForced false 


================================================================================
                                       INPUT FILE
================================================================================
NAME = AR3LD_4.8_3.6_4.4.inp
|  1> # MP2 scan of the potential energy curve for Ar...Ar
|  2>                 ! HFLD aug-cc-pvdz aug-cc-pvdz/C verytightscf
|  3>                 *xyz 0 1
|  4>                 Ar(1)	0    0	0.00000000000000
|  5>                 Ar(2)	4.4	0    0.00000000000000
|  6>                 Ar(3)	1.054545454545455	3.4420827828943223    0.00000000000000
|  7>                 **                         ****END OF INPUT****
================================================================================

                       ****************************
                       * Single Point Calculation *
                       ****************************

---------------------------------
CARTESIAN COORDINATES (ANGSTROEM)
---------------------------------
  Ar     0.000000    0.000000    0.000000
  Ar     4.400000    0.000000    0.000000
  Ar     1.054545    3.442083    0.000000

----------------------------
CARTESIAN COORDINATES (A.U.)
----------------------------
  NO LB      ZA    FRAG     MASS         X           Y           Z
   0 Ar   18.0000    1    39.948    0.000000    0.000000    0.000000
   1 Ar   18.0000    2    39.948    8.314795    0.000000    0.000000
   2 Ar   18.0000    3    39.948    1.992802    6.504594    0.000000

----------------------------------------------
CARTESIAN COORDINATES OF FRAGMENTS (ANGSTROEM)
----------------------------------------------

 FRAGMENT 1 
  Ar    0.000000    0.000000    0.000000

 FRAGMENT 2 
  Ar    4.400000    0.000000    0.000000

 FRAGMENT 3 
  Ar    1.054545    3.442083    0.000000

--------------------------------
INTERNAL COORDINATES (ANGSTROEM)
--------------------------------
 Ar     0   0   0     0.000000000000     0.00000000     0.00000000
 Ar     1   0   0     4.400000000000     0.00000000     0.00000000
 Ar     1   2   0     3.600000000000    72.96658983     0.00000000

---------------------------
INTERNAL COORDINATES (A.U.)
---------------------------
 Ar     0   0   0     0.000000000000     0.00000000     0.00000000
 Ar     1   0   0     8.314794989254     0.00000000     0.00000000
 Ar     1   2   0     6.803014082117    72.96658983     0.00000000

---------------------
BASIS SET INFORMATION
---------------------
There are 1 groups of distinct atoms

 Group   1 Type Ar  : 35s16p2d contracted to 5s4p2d pattern {11111111/7711/11}

Atom   0Ar   basis set group =>   1
Atom   1Ar   basis set group =>   1
Atom   2Ar   basis set group =>   1
---------------------------------
AUXILIARY/C BASIS SET INFORMATION
---------------------------------
There are 1 groups of distinct atoms

 Group   1 Type Ar  : 10s8p6d4f contracted to 10s8p6d4f pattern {1111111111/11111111/111111/1111}

Atom   0Ar   basis set group =>   1
Atom   1Ar   basis set group =>   1
Atom   2Ar   basis set group =>   1
------------------------------------------------------------------------------
                             ORCA STARTUP CALCULATIONS
------------------------------------------------------------------------------
------------------------------------------------------------------------------
                   ___                                                        
                  /   \      - P O W E R E D   B Y -                         
                 /     \                                                     
                 |  |  |   _    _      __       _____    __    __             
                 |  |  |  | |  | |    /  \     |  _  \  |  |  /  |          
                  \  \/   | |  | |   /    \    | | | |  |  | /  /          
                 / \  \   | |__| |  /  /\  \   | |_| |  |  |/  /          
                |  |  |   |  __  | /  /__\  \  |    /   |      \           
                |  |  |   | |  | | |   __   |  |    \   |  |\   \          
                \     /   | |  | | |  |  |  |  | |\  \  |  | \   \       
                 \___/    |_|  |_| |__|  |__|  |_| \__\ |__|  \__/        
                                                                              
                      - O R C A' S   B I G   F R I E N D -                    
                                      &                                       
                       - I N T E G R A L  F E E D E R -                       
                                                                              
 v1 FN, 2020, v2 2021, v3 2022-2024                                           
------------------------------------------------------------------------------


----------------------
SHARK INTEGRAL PACKAGE
----------------------

Number of atoms                             ...      3
Number of basis functions                   ...    150
Number of shells                            ...     72
Maximum angular momentum                    ...      2
Integral batch strategy                     ... SHARK/LIBINT Hybrid
RI-J (if used) integral strategy            ... SPLIT-RIJ (Revised 2003 algorithm where possible)
Printlevel                                  ...      1
Contraction scheme used                     ... PARTIAL GENERAL contraction
Prescreening option                         ... SCHWARTZ
   Thresh                                   ... 1.000e-12
   Tcut                                     ... 1.000e-14
   Tpresel                                  ... 1.000e-14 
Coulomb Range Separation                    ... NOT USED
Exchange Range Separation                   ... NOT USED
Multipole approximations                    ... NOT USED
Finite Nucleus Model                        ... NOT USED
CABS basis                                  ... NOT available
Auxiliary Coulomb fitting basis             ... NOT available
Auxiliary J/K fitting basis                 ... NOT available
Auxiliary Correlation fitting basis         ... AVAILABLE
   # of basis functions in Aux-C            ...    276
   # of shells in Aux-C                     ...     84
   Maximum angular momentum in Aux-C        ...      3
Auxiliary 'external' fitting basis          ... NOT available

Checking pre-screening integrals            ... done (  0.0 sec) Dimension = 72
Save PGC pre-screening integrals            ... done (  0.0 sec) Dimension = 72
Calculate PGC overlap integrals             ... done (  0.0 sec) Dimension = 33
Calculating pre-screening integrals (ORCA)  ... done (  0.1 sec) Dimension = 33
Check shell pair data                       ... done (  0.0 sec)
Shell pair information
Shell pair cut-off parameter TPreSel        ...   1.0e-14
Total number of shell pairs                 ...      2628
Shell pairs after pre-screening             ...      1652
Total number of primitive shell pairs       ...      2628
Primitive shell pairs kept                  ...      1652
          la=0 lb=0:    430 shell pairs
          la=1 lb=0:    631 shell pairs
          la=1 lb=1:    248 shell pairs
          la=2 lb=0:    184 shell pairs
          la=2 lb=1:    138 shell pairs
          la=2 lb=2:     21 shell pairs

Calculating one electron integrals          ... done (  0.0 sec)
Calculating RI/C V-Matrix + Cholesky decomp.... done (  0.0 sec)
Calculating Nuclear repulsion               ... done (  0.0 sec) ENN=    122.312095645705 Eh

Diagonalization of the overlap matrix:
Smallest eigenvalue                        ... 2.872e-02
Time for diagonalization                   ...    0.001 sec
Threshold for overlap eigenvalues          ... 1.000e-07
Number of eigenvalues below threshold      ... 0
Time for construction of square roots      ...    0.000 sec
Total time needed                          ...    0.001 sec

-------------------
DFT GRID GENERATION
-------------------

General Integration Accuracy     IntAcc      ... 4.388
Radial Grid Type                 RadialGrid  ... OptM3 with GC (2021)
Angular Grid (max. ang.)         AngularGrid ... 4 (Lebedev-302)
Angular grid pruning method      GridPruning ... 4 (adaptive)
Weight generation scheme         WeightScheme... mBecke (2022)
Basis function cutoff            BFCut       ... 1.0000e-12
Integration weight cutoff        WCut        ... 1.0000e-14
Partially contracted basis set               ... off
Rotationally invariant grid construction     ... off
Angular grids for H and He will be reduced by one unit

Total number of grid points                  ...    22080
Total number of batches                      ...      346
Average number of points per batch           ...       63
Average number of grid points per atom       ...     7360

---------------------
SHARK GRID GENERATION
---------------------

General Integration Accuracy     IntAcc      ... 4.388
Radial Grid Type                 RadialGrid  ... OptM3 with GC (2021)
Angular Grid (max. ang.)         AngularGrid ... 4 (Lebedev-302)
Angular grid pruning method      GridPruning ... 4 (adaptive)
Weight generation scheme         WeightScheme... mBecke (2022)
Basis function cutoff            BFCut       ... 1.0000e-12
Integration weight cutoff        WCut        ... 1.0000e-14
Partially contracted basis set               ... off
Rotationally invariant grid construction     ... off
Angular grids for H and He will be reduced by one unit
Core-polarized basis detected: some atoms will have their core
                               angular grid increased.
Steep s-basis detected: some atoms will have their radial
                        grid points doubled.

Total number of grid points                  ...    58012
Total number of batches                      ...      908
Average number of points per batch           ...       63
Average number of grid points per atom       ...    19337
Initializing property integral containers    ... done (  0.0 sec)

SHARK setup successfully completed in   1.1 seconds

Maximum memory used throughout the entire STARTUP-calculation: 27.3 MB
-------------------------------------------------------------------------------
                                 ORCA GUESS
                   Start orbitals & Density for SCF / CASSCF
-------------------------------------------------------------------------------

------------
SCF SETTINGS
------------
Hamiltonian:
 Ab initio Hamiltonian  Method          .... Hartree-Fock(GTOs)


General Settings:
 Integral files         IntName         .... AR3LD_4.8_3.6_4.4
 Hartree-Fock type      HFTyp           .... RHF
 Total Charge           Charge          ....    0
 Multiplicity           Mult            ....    1
 Number of Electrons    NEL             ....   54
 Basis Dimension        Dim             ....   81
 Nuclear Repulsion      ENuc            ....    122.3120956457 Eh

Convergence Acceleration:
 AO-DIIS                CNVDIIS         .... on
   Start iteration      DIISMaxIt       ....    12
   Startup error        DIISStart       ....  0.200000
   # of expansion vecs  DIISMaxEq       ....     5
   Bias factor          DIISBfac        ....   1.050
   Max. coefficient     DIISMaxC        ....  10.000
 MO-DIIS                CNVKDIIS        .... off
 Trust-Rad. Augm. Hess. CNVTRAH         .... auto
   Auto Start mean grad. ratio tolernc. ....  1.125000
   Auto Start start iteration           ....    50
   Auto Start num. interpolation iter.  ....    10
   Max. Number of Micro iterations      ....    24
   Max. Number of Macro iterations      .... Maxiter - #DIIS iter
   Number of Davidson start vectors     ....     2
   Converg. threshold    (grad. norm)   ....   2.000e-06
   Grad. Scal. Fac. for Micro threshold ....   0.100
   Minimum threshold for Micro iter.    ....   1.000e-02
   NR start threshold (gradient norm)   ....   1.000e-04
   Initial trust radius                 ....   0.400
   Minimum AH scaling param. (alpha)    ....   1.000
   Maximum AH scaling param. (alpha)    .... 1000.000
   Quad. conv. algorithm                .... NR
   White noise on init. David. guess    .... on
   Maximum white noise                  ....   0.010
   Pseudo random numbers                .... off
   Inactive MOs                         .... canonical
   Orbital update algorithm             .... Taylor
   Preconditioner                       .... Diag
   Full preconditioner red. dimension   ....   250
 SOSCF                  CNVSOSCF        .... on
   Start iteration      SOSCFMaxIt      ....   150
   Startup grad/error   SOSCFStart      ....  0.003300
   Hessian update       SOSCFHessUp     .... L-BFGS
 Level Shifting         CNVShift        .... on
   Level shift para.    LevelShift      ....    0.2500
   Turn off err/grad.   ShiftErr        ....    0.0010
 Zerner damping         CNVZerner       .... off
 Static damping         CNVDamp         .... on
   Fraction old density DampFac         ....    0.7000
   Max. Damping (<1)    DampMax         ....    0.9800
   Min. Damping (>=0)   DampMin         ....    0.0000
   Turn off err/grad.   DampErr         ....    0.1000

SCF Procedure:
 Maximum # iterations   MaxIter         ....   125
 SCF integral mode      SCFMode         .... Direct
   Integral package                     .... SHARK and LIBINT hybrid scheme
 Reset frequency        DirectResetFreq ....    20
 Integral Threshold     Thresh          ....  1.000e-12 Eh
 Primitive CutOff       TCut            ....  1.000e-14 Eh

Convergence Tolerance:
 Convergence Check Mode ConvCheckMode   .... Total+1el-Energy
 Convergence forced     ConvForced      .... 1
 Energy Change          TolE            ....  1.000e-09 Eh
 1-El. energy change                    ....  1.000e-06 Eh
 Orbital Gradient       TolG            ....  2.000e-06
 Orbital Rotation angle TolX            ....  2.000e-06
 DIIS Error             TolErr          ....  1.000e-08

------------------------------
INITIAL GUESS: MODEL POTENTIAL
------------------------------
Loading Hartree-Fock densities                     ... done
Calculating cut-offs                               ... done
Initializing the effective Hamiltonian             ... done
Setting up the integral package (SHARK)            ... done
Starting the Coulomb interaction                   ... done (   0.0 sec)
Making the grid                                    ... done (   0.0 sec)
Mapping shells                                     ... done
Starting the XC term evaluation                    ... done (   0.0 sec)
Transforming the Hamiltonian                       ... done (   0.0 sec)
Diagonalizing the Hamiltonian                      ... done (   0.0 sec)
Back transforming the eigenvectors                 ... done (   0.0 sec)
Now organizing SCF variables                       ... done
                      ------------------
                      INITIAL GUESS DONE (   0.1 sec)
                      ------------------
             **** ENERGY FILE WAS UPDATED (AR3LD_4.8_3.6_4.4.en.tmp) ****
Finished Guess after   0.1 sec
Maximum memory used throughout the entire GUESS-calculation: 6.5 MB

-------------------------------------------------------------------------------------------
                                      ORCA LEAN-SCF
                              memory conserving SCF solver
-------------------------------------------------------------------------------------------

----------------------------------------D-I-I-S--------------------------------------------
Iteration    Energy (Eh)           Delta-E    RMSDP     MaxDP     DIISErr   Damp  Time(sec)
-------------------------------------------------------------------------------------------
               ***  Starting incremental Fock matrix formation  ***
    1    -1580.3846948196817266     0.00e+00  1.03e-03  1.74e-02  9.30e-02  0.700   0.3
    2    -1580.3897012565550995    -5.01e-03  8.01e-04  1.27e-02  6.66e-02  0.700   0.3
                               ***Turning on AO-DIIS***
    3    -1580.3933261231613869    -3.62e-03  6.35e-04  9.28e-03  4.74e-02  0.700   0.3
    4    -1580.3959257039848580    -2.60e-03  1.56e-03  2.18e-02  3.33e-02  0.000   0.3
                              *** Initializing SOSCF ***
---------------------------------------S-O-S-C-F--------------------------------------
Iteration    Energy (Eh)           Delta-E    RMSDP     MaxDP     MaxGrad    Time(sec)
--------------------------------------------------------------------------------------
    5    -1580.4022404812785680    -6.31e-03  7.99e-05  9.88e-04  1.01e-03     0.4
               *** Restarting incremental Fock matrix formation ***
    6    -1580.4022481351814804    -7.65e-06  3.92e-05  5.34e-04  2.56e-04     0.3
    7    -1580.4022495599908780    -1.42e-06  1.44e-05  1.72e-04  5.93e-05     0.2
    8    -1580.4022496488016714    -8.88e-08  7.54e-07  1.41e-05  7.19e-06     0.2
    9    -1580.4022496491747916    -3.73e-10  1.31e-07  2.14e-06  1.12e-06     0.6
                 **** Energy Check signals convergence ****

               *****************************************************
               *                     SUCCESS                       *
               *           SCF CONVERGED AFTER   9 CYCLES          *
               *****************************************************

             **** ENERGY FILE WAS UPDATED (AR3LD_4.8_3.6_4.4.en.tmp) ****

----------------
TOTAL SCF ENERGY
----------------

Total Energy       :      -1580.40224964917479 Eh          -43004.93154 eV

Components:
Nuclear Repulsion  :        122.31209564570455 Eh            3328.28133 eV
Electronic Energy  :      -1702.71434529487942 Eh          -46333.21287 eV
One Electron Energy:      -2429.22662961068181 Eh          -66102.61718 eV
Two Electron Energy:        726.51228431580239 Eh           19769.40431 eV

Virial components:
Potential Energy   :      -3160.81814007308049 Eh          -86010.23427 eV
Kinetic Energy     :       1580.41589042390569 Eh           43005.30273 eV
Virial Ratio       :          1.99999136887017

---------------
SCF CONVERGENCE
---------------

  Last Energy change         ...    3.7312e-10  Tolerance :   1.0000e-09
  Last MAX-Density change    ...    2.1416e-06  Tolerance :   1.0000e-08
  Last RMS-Density change    ...    1.3128e-07  Tolerance :   1.0000e-09
  Last DIIS Error            ...    1.0072e-03  Tolerance :   1.0000e-08
  Last Orbital Gradient      ...    1.1185e-06  Tolerance :   2.0000e-06
  Last Orbital Rotation      ...    1.0199e-06  Tolerance :   2.0000e-06


----------------
ORBITAL ENERGIES
----------------

  NO   OCC          E(Eh)            E(eV) 
   0   2.0000    -118.610562     -3227.5575 
   1   2.0000    -118.610040     -3227.5433 
   2   2.0000    -118.610020     -3227.5427 
   3   2.0000     -12.322732      -335.3186 
   4   2.0000     -12.322236      -335.3051 
   5   2.0000     -12.322194      -335.3039 
   6   2.0000      -9.571315      -260.4487 
   7   2.0000      -9.571314      -260.4487 
   8   2.0000      -9.571313      -260.4487 
   9   2.0000      -9.570827      -260.4354 
  10   2.0000      -9.570825      -260.4354 
  11   2.0000      -9.570820      -260.4353 
  12   2.0000      -9.570790      -260.4344 
  13   2.0000      -9.570790      -260.4344 
  14   2.0000      -9.570784      -260.4343 
  15   2.0000      -1.279766       -34.8242 
  16   2.0000      -1.278818       -34.7984 
  17   2.0000      -1.277433       -34.7607 
  18   2.0000      -0.602316       -16.3899 
  19   2.0000      -0.595014       -16.1912 
  20   2.0000      -0.593461       -16.1489 
  21   2.0000      -0.592533       -16.1237 
  22   2.0000      -0.592144       -16.1131 
  23   2.0000      -0.591103       -16.0847 
  24   2.0000      -0.590396       -16.0655 
  25   2.0000      -0.589542       -16.0423 
  26   2.0000      -0.581939       -15.8354 
  27   0.0000       0.122092         3.3223 
  28   0.0000       0.126681         3.4472 
  29   0.0000       0.127926         3.4811 
  30   0.0000       0.130846         3.5605 
  31   0.0000       0.156067         4.2468 
  32   0.0000       0.165960         4.5160 
  33   0.0000       0.166350         4.5266 
  34   0.0000       0.175566         4.7774 
  35   0.0000       0.182535         4.9670 
  36   0.0000       0.200881         5.4663 
  37   0.0000       0.261870         7.1258 
*Only the first 10 virtual orbitals were printed.

                    ********************************
                    * MULLIKEN POPULATION ANALYSIS *
                    ********************************

-------------------------
MULLIKEN FRAGMENT CHARGES
-------------------------
 Fragment   0 :   0.000193
 Fragment   1 :  -0.000156
 Fragment   2 :  -0.000036
Sum of fragment charges:   -0.0000000

---------------------------------
MULLIKEN FRAGMENT OVERLAP CHARGES
---------------------------------
                  0          1          2    
      0      17.999819   0.002657  -0.002681
      1       0.002657  17.997955   0.001745
      2      -0.002681   0.001745  18.000504

-----------------------
MULLIKEN ATOMIC CHARGES
-----------------------
   0 Ar:    0.000193
   1 Ar:   -0.000156
   2 Ar:   -0.000036
Sum of atomic charges:   -0.0000000

--------------------------------
MULLIKEN REDUCED ORBITAL CHARGES
--------------------------------
  0 Ars       :     5.999134  s :     5.999134
      pz      :     3.999970  p :    12.000374
      px      :     3.999933
      py      :     4.000471
      dz2     :     0.000056  d :     0.000299
      dxz     :     0.000004
      dyz     :     0.000026
      dx2y2   :     0.000146
      dxy     :     0.000067

  1 Ars       :     5.999911  s :     5.999911
      pz      :     4.000000  p :    12.000190
      px      :     4.000167
      py      :     4.000024
      dz2     :     0.000013  d :     0.000055
      dxz     :     0.000001
      dyz     :     0.000000
      dx2y2   :     0.000033
      dxy     :     0.000008

  2 Ars       :     5.999254  s :     5.999254
      pz      :     3.999970  p :    12.000519
      px      :     4.000052
      py      :     4.000497
      dz2     :     0.000049  d :     0.000263
      dxz     :     0.000003
      dyz     :     0.000026
      dx2y2   :     0.000112
      dxy     :     0.000073



                     *******************************
                     * LOEWDIN POPULATION ANALYSIS *
                     *******************************

------------------------
LOEWDIN FRAGMENT CHARGES
------------------------
 Fragment   0 :  -0.000302
 Fragment   1 :   0.000298
 Fragment   2 :   0.000004

----------------------------
LOEWDIN FRAGMENT BOND ORDERS
----------------------------
                  0          1          2    
      0      18.000302   0.012119   0.066362
      1       0.012119  17.999702   0.004005
      2       0.066362   0.004005  17.999996

----------------------
LOEWDIN ATOMIC CHARGES
----------------------
   0 Ar:   -0.000302
   1 Ar:    0.000298
   2 Ar:    0.000004

-------------------------------
LOEWDIN REDUCED ORBITAL CHARGES
-------------------------------
  0 Ars       :     5.992999  s :     5.992999
      pz      :     3.999989  p :    12.006402
      px      :     4.001490
      py      :     4.004923
      dz2     :     0.000221  d :     0.000900
      dxz     :     0.000002
      dyz     :     0.000017
      dx2y2   :     0.000449
      dxy     :     0.000211

  1 Ars       :     5.998984  s :     5.998984
      pz      :     3.999993  p :    12.000684
      px      :     4.000664
      py      :     4.000027
      dz2     :     0.000007  d :     0.000034
      dxz     :     0.000001
      dyz     :     0.000000
      dx2y2   :     0.000018
      dxy     :     0.000008

  2 Ars       :     5.993499  s :     5.993499
      pz      :     3.999979  p :    12.005609
      px      :     4.000421
      py      :     4.005208
      dz2     :     0.000216  d :     0.000888
      dxz     :     0.000002
      dyz     :     0.000017
      dx2y2   :     0.000440
      dxy     :     0.000214



                      *****************************
                      * MAYER POPULATION ANALYSIS *
                      *****************************

  NA   - Mulliken gross atomic population
  ZA   - Total nuclear charge
  QA   - Mulliken gross atomic charge
  VA   - Mayer's total valence
  BVA  - Mayer's bonded valence
  FA   - Mayer's free valence

  ATOM       NA         ZA         QA         VA         BVA        FA
  0 Ar    17.9998    18.0000     0.0002     0.0058     0.0058     0.0000
  1 Ar    18.0002    18.0000    -0.0002     0.0049     0.0049     0.0000
  2 Ar    18.0000    18.0000    -0.0000     0.0046     0.0046    -0.0000

  Mayer bond orders larger than 0.100000
  => no bond orders to print

-------
TIMINGS
-------

Total SCF time: 0 days 0 hours 0 min 3 sec 

Total time                  ....       3.033 sec
Sum of individual times     ....       3.022 sec  ( 99.7%)

SCF preparation             ....       0.030 sec  (  1.0%)
Fock matrix formation       ....       2.967 sec  ( 97.8%)
  Startup                   ....       0.000 sec  (  0.0% of F)
  Coulomb+Exchange Fock     ....       2.963 sec  ( 99.9% of F)
Diagonalization             ....       0.000 sec  (  0.0%)
Density matrix formation    ....       0.002 sec  (  0.1%)
Total Energy calculation    ....       0.001 sec  (  0.0%)
Population analysis         ....       0.005 sec  (  0.2%)
Orbital Transformation      ....       0.005 sec  (  0.2%)
Orbital Orthonormalization  ....       0.000 sec  (  0.0%)
DIIS solution               ....       0.008 sec  (  0.3%)
SOSCF solution              ....       0.004 sec  (  0.1%)
Finished LeanSCF after   3.0 sec

Maximum memory used throughout the entire LEANSCF-calculation: 8.5 MB

------------------------------------------------------------------------------
                         ORCA PROPERTY INTEGRAL CALCULATIONS
------------------------------------------------------------------------------

GBWName                                   ... AR3LD_4.8_3.6_4.4.gbw
Number of atoms                           ...      3
Number of basis functions                 ...    150
Max core memory                           ...   1024 MB

Dipole integrals                          ... YES
Quadrupole integrals                      ...  NO
Linear momentum integrals                 ... YES
Angular momentum integrals                ... YES
Higher moments length integrals           ...  NO
Higher moments velocity integrals         ...  NO
Kinetic energy integrals                  ...  NO
GIAO right hand sides                     ...  NO
GIAO dipole derivative integrals          ...  NO
SOC integrals                             ...  NO
EPR diamagnetic integrals (GIAO)          ...  NO
EPR gauge integrals                       ...  NO
Field gradient integrals                  ...  NO (   0 nuclei)
Spin-dipole/Fermi contact integrals       ...  NO (   0 nuclei)
Contact density integrals                 ...  NO (   0 nuclei)
Nucleus-orbit integrals                   ...  NO (   0 nuclei)
Geometric perturbations                   ...  NO (   3 nuclei)

Choice of electric origin   ... Center of mass
Position of electric origin ... (  3.4359,  2.1682,  0.0000) 
Choice of magnetic origin   ... GIAO
Position of magnetic origin ... (  0.0000,  0.0000,  0.0000) 

Calculating integrals                     ... Electric Dipole (Length)     done (  0.0 sec)
Calculating integrals                     ... Linear Momentum              done (  0.0 sec)
Calculating integrals                     ... Angular Momentum  (ElOri)    done (  0.0 sec)

Property integrals calculated in   0.0 sec

Maximum memory used throughout the entire PROPINT-calculation: 6.6 MB


--------------------------------------------------------------------------------
                             ORCA-MATRIX DRIVEN CI
--------------------------------------------------------------------------------


Wavefunction type
-----------------
Correlation treatment                      ...      CCSD     
Single excitations                         ... ON
Orbital optimization                       ... OFF
Calculation of Z vector                    ... OFF
Calculation of Brueckner orbitals          ... OFF
Perturbative triple excitations            ... OFF
Calculation of F12 correction              ... OFF
Frozen core treatment                      ... chemical core (30 el)
Reference Wavefunction                     ... RHF
  Internal Orbitals:    15 ...   26 ( 12 MO's/ 24 electrons)
  Virtual  Orbitals:    27 ...   80 ( 54 MO's              )
Number of AO's                             ...     81
Number of electrons                        ...     54
Number of correlated electrons             ...     24

Algorithmic settings
--------------------
Integral transformation                    ... All integrals via the RI transformation
K(C) Formation                             ... RI-DLPNO
   PNO-Integral Storage                    ... ON DISK
   PNO occupation number cut-off           ... 3.330e-07
   Singles PNO occupation number cut-off   ... 9.990e-09
   PNO Mulliken prescreening cut-off       ... 1.000e-03
   Domain cut-off (Mulliken population)    ... 1.000e-03
   PNO Normalization                       ...    1
Maximum number of iterations               ...        50
Convergence tolerance (max. residuum)      ... 1.000e-06
Level shift for amplitude update           ... 2.000e-01
Maximum number of DIIS vectors             ...         7
DIIS turned on at iteration                ...         0
Damping before turning on DIIS             ...     0.500
Damping after turning on DIIS              ...     0.000
Pair specific amplitude update             ... OFF
Natural orbital iterations                 ... OFF
Perturbative natural orbital generation    ... OFF
Printlevel                                 ... 2

Singles Fock matrix elements calculated using PNOs.

Memory handling:
----------------
Maximum memory for working arrays          ...    512 MB
Data storage in matrix containers          ... UNCOMPRESSED
Data type for integral storage             ... DOUBLE
In-Core Storage of quantities:
   Amplitudes+Sigma Vector      ... NO
   J+K operators                ... NO
   DIIS vectors                 ... NO
   3-external integrals         ... NO
   4-external integrals         ... NO

Localization treatment:
-----------------------
Localization option                        ...    2
Localization threshhold                    ... -1.0e+00
Using relative localization threshhold     ... 1.0e-08
Neglect threshold for strong pairs         ... 1.000e-05 Eh
Prescreening threshold for very weak pairs ... 1.000e-07 Eh
Using randomized seed for localization     ... on

Initializing the integral package          ... done
Localizing the valence orbitals
Localizing the valence orbitals
Localization sum:   270.307471675 
------------------------------------------------------------------------------
                           ORCA ORBITAL LOCALIZATION
------------------------------------------------------------------------------

Input orbitals are from                  ... AR3LD_4.8_3.6_4.4.proc0.gbw
Output orbitals are to                   ... AR3LD_4.8_3.6_4.4.proc0.loc
Max. number of iterations                ... 128
Localizations seeded randomly            ... on
Convergence tolerance                    ... 2.000e-07
Using relative localization threshhold   ... 1.000e-08
Threshold for strong local MOs           ... 9.500e-01
Threshold for bond MOs                   ... 8.500e-01
Operator                                 ... 0
Orbital range for localization           ... 15 to 26
Localization criterion                   ... FOSTER-BOYS
Doing the dipole integrals     ... o.k.
Entering Jacobi type localization:
Using Cholesky decomposition as initial guess.
Initial value of the localization sum :   263.575874
ITERATION   0 : L=  270.3025682970 DL=  6.73e+00 (MAX-T)=  45.000 
ITERATION   1 : L=  270.3069336537 DL=  4.37e-03 (MAX-T)=   1.786 
ITERATION   2 : L=  270.3069500945 DL=  1.64e-05 (MAX-T)=   0.130 
ITERATION   3 : L=  270.3069604239 DL=  1.03e-05 (MAX-T)=   0.093 
ITERATION   4 : L=  270.3069708853 DL=  1.05e-05 (MAX-T)=   0.086 
ITERATION   5 : L=  270.3069842570 DL=  1.34e-05 (MAX-T)=   0.081 
ITERATION   6 : L=  270.3069926877 DL=  8.43e-06 (MAX-T)=   0.083 
ITERATION   7 : L=  270.3070014033 DL=  8.72e-06 (MAX-T)=   0.067 
ITERATION   8 : L=  270.3070081109 DL=  6.71e-06 (MAX-T)=   0.078 
ITERATION   9 : L=  270.3070179905 DL=  9.88e-06 (MAX-T)=   0.081 
ITERATION  10 : L=  270.3070266195 DL=  8.63e-06 (MAX-T)=   0.065 
ITERATION  11 : L=  270.3070372985 DL=  1.07e-05 (MAX-T)=   0.072 
ITERATION  12 : L=  270.3070491311 DL=  1.18e-05 (MAX-T)=   0.062 
ITERATION  13 : L=  270.3070569110 DL=  7.78e-06 (MAX-T)=   0.082 
ITERATION  14 : L=  270.3070647510 DL=  7.84e-06 (MAX-T)=   0.075 
ITERATION  15 : L=  270.3070723495 DL=  7.60e-06 (MAX-T)=   0.055 
ITERATION  16 : L=  270.3070789793 DL=  6.63e-06 (MAX-T)=   0.065 
ITERATION  17 : L=  270.3070877079 DL=  8.73e-06 (MAX-T)=   0.083 
ITERATION  18 : L=  270.3070959794 DL=  8.27e-06 (MAX-T)=   0.070 
ITERATION  19 : L=  270.3071050815 DL=  9.10e-06 (MAX-T)=   0.070 
ITERATION  20 : L=  270.3071120093 DL=  6.93e-06 (MAX-T)=   0.077 
ITERATION  21 : L=  270.3071199511 DL=  7.94e-06 (MAX-T)=   0.065 
ITERATION  22 : L=  270.3071281239 DL=  8.17e-06 (MAX-T)=   0.076 
ITERATION  23 : L=  270.3071368540 DL=  8.73e-06 (MAX-T)=   0.072 
ITERATION  24 : L=  270.3071434853 DL=  6.63e-06 (MAX-T)=   0.066 
ITERATION  25 : L=  270.3071510694 DL=  7.58e-06 (MAX-T)=   0.064 
ITERATION  26 : L=  270.3071592865 DL=  8.22e-06 (MAX-T)=   0.069 
ITERATION  27 : L=  270.3071659504 DL=  6.66e-06 (MAX-T)=   0.057 
ITERATION  28 : L=  270.3071750972 DL=  9.15e-06 (MAX-T)=   0.066 
ITERATION  29 : L=  270.3071811623 DL=  6.07e-06 (MAX-T)=   0.052 
ITERATION  30 : L=  270.3071862889 DL=  5.13e-06 (MAX-T)=   0.065 
ITERATION  31 : L=  270.3071940504 DL=  7.76e-06 (MAX-T)=   0.068 
ITERATION  32 : L=  270.3072013741 DL=  7.32e-06 (MAX-T)=   0.067 
ITERATION  33 : L=  270.3072088538 DL=  7.48e-06 (MAX-T)=   0.056 
ITERATION  34 : L=  270.3072166811 DL=  7.83e-06 (MAX-T)=   0.060 
ITERATION  35 : L=  270.3072230228 DL=  6.34e-06 (MAX-T)=   0.052 
ITERATION  36 : L=  270.3072292224 DL=  6.20e-06 (MAX-T)=   0.057 
ITERATION  37 : L=  270.3072341626 DL=  4.94e-06 (MAX-T)=   0.056 
ITERATION  38 : L=  270.3072404329 DL=  6.27e-06 (MAX-T)=   0.057 
ITERATION  39 : L=  270.3072467611 DL=  6.33e-06 (MAX-T)=   0.056 
ITERATION  40 : L=  270.3072530247 DL=  6.26e-06 (MAX-T)=   0.061 
ITERATION  41 : L=  270.3072589399 DL=  5.92e-06 (MAX-T)=   0.056 
ITERATION  42 : L=  270.3072634618 DL=  4.52e-06 (MAX-T)=   0.050 
ITERATION  43 : L=  270.3072690109 DL=  5.55e-06 (MAX-T)=   0.056 
ITERATION  44 : L=  270.3072745982 DL=  5.59e-06 (MAX-T)=   0.056 
ITERATION  45 : L=  270.3072788910 DL=  4.29e-06 (MAX-T)=   0.054 
ITERATION  46 : L=  270.3072847331 DL=  5.84e-06 (MAX-T)=   0.052 
ITERATION  47 : L=  270.3072897849 DL=  5.05e-06 (MAX-T)=   0.046 
ITERATION  48 : L=  270.3072954709 DL=  5.69e-06 (MAX-T)=   0.050 
ITERATION  49 : L=  270.3072993963 DL=  3.93e-06 (MAX-T)=   0.036 
ITERATION  50 : L=  270.3073047010 DL=  5.30e-06 (MAX-T)=   0.054 
ITERATION  51 : L=  270.3073086977 DL=  4.00e-06 (MAX-T)=   0.044 
ITERATION  52 : L=  270.3073137905 DL=  5.09e-06 (MAX-T)=   0.048 
ITERATION  53 : L=  270.3073169831 DL=  3.19e-06 (MAX-T)=   0.037 
ITERATION  54 : L=  270.3073214500 DL=  4.47e-06 (MAX-T)=   0.051 
ITERATION  55 : L=  270.3073260128 DL=  4.56e-06 (MAX-T)=   0.041 
ITERATION  56 : L=  270.3073301757 DL=  4.16e-06 (MAX-T)=   0.041 
ITERATION  57 : L=  270.3073343533 DL=  4.18e-06 (MAX-T)=   0.041 
ITERATION  58 : L=  270.3073400150 DL=  5.66e-06 (MAX-T)=   0.048 
ITERATION  59 : L=  270.3073445312 DL=  4.52e-06 (MAX-T)=   0.042 
ITERATION  60 : L=  270.3073488576 DL=  4.33e-06 (MAX-T)=   0.044 
ITERATION  61 : L=  270.3073532204 DL=  4.36e-06 (MAX-T)=   0.044 
ITERATION  62 : L=  270.3073572825 DL=  4.06e-06 (MAX-T)=   0.039 
ITERATION  63 : L=  270.3073614058 DL=  4.12e-06 (MAX-T)=   0.037 
ITERATION  64 : L=  270.3073659340 DL=  4.53e-06 (MAX-T)=   0.040 
ITERATION  65 : L=  270.3073695191 DL=  3.59e-06 (MAX-T)=   0.048 
ITERATION  66 : L=  270.3073728913 DL=  3.37e-06 (MAX-T)=   0.040 
ITERATION  67 : L=  270.3073769263 DL=  4.03e-06 (MAX-T)=   0.044 
ITERATION  68 : L=  270.3073808589 DL=  3.93e-06 (MAX-T)=   0.036 
ITERATION  69 : L=  270.3073850706 DL=  4.21e-06 (MAX-T)=   0.037 
ITERATION  70 : L=  270.3073883058 DL=  3.24e-06 (MAX-T)=   0.039 
ITERATION  71 : L=  270.3073917287 DL=  3.42e-06 (MAX-T)=   0.040 
ITERATION  72 : L=  270.3073963146 DL=  4.59e-06 (MAX-T)=   0.041 
ITERATION  73 : L=  270.3073999343 DL=  3.62e-06 (MAX-T)=   0.036 
ITERATION  74 : L=  270.3074037496 DL=  3.82e-06 (MAX-T)=   0.039 
ITERATION  75 : L=  270.3074072438 DL=  3.49e-06 (MAX-T)=   0.045 
ITERATION  76 : L=  270.3074109076 DL=  3.66e-06 (MAX-T)=   0.034 
ITERATION  77 : L=  270.3074138054 DL=  2.90e-06 (MAX-T)=   0.043 
ITERATION  78 : L=  270.3074176216 DL=  3.82e-06 (MAX-T)=   0.037 
ITERATION  79 : L=  270.3074205926 DL=  2.97e-06 (MAX-T)=   0.037 
ITERATION  80 : L=  270.3074238104 DL=  3.22e-06 (MAX-T)=   0.037 
ITERATION  81 : L=  270.3074280600 DL=  4.25e-06 (MAX-T)=   0.039 
ITERATION  82 : L=  270.3074310481 DL=  2.99e-06 (MAX-T)=   0.033 
ITERATION  83 : L=  270.3074342981 DL=  3.25e-06 (MAX-T)=   0.035 
ITERATION  84 : L=  270.3074375144 DL=  3.22e-06 (MAX-T)=   0.035 
ITERATION  85 : L=  270.3074410712 DL=  3.56e-06 (MAX-T)=   0.032 
ITERATION  86 : L=  270.3074442365 DL=  3.17e-06 (MAX-T)=   0.032 
ITERATION  87 : L=  270.3074474762 DL=  3.24e-06 (MAX-T)=   0.030 
ITERATION  88 : L=  270.3074502531 DL=  2.78e-06 (MAX-T)=   0.036 
ITERATION  89 : L=  270.3074535100 DL=  3.26e-06 (MAX-T)=   0.039 
ITERATION  90 : L=  270.3074568349 DL=  3.32e-06 (MAX-T)=   0.033 
ITERATION  91 : L=  270.3074599522 DL=  3.12e-06 (MAX-T)=   0.038 
ITERATION  92 : L=  270.3074630034 DL=  3.05e-06 (MAX-T)=   0.035 
ITERATION  93 : L=  270.3074666102 DL=  3.61e-06 (MAX-T)=   0.030 
ITERATION  94 : L=  270.3074693208 DL=  2.71e-06 (MAX-T)=   0.035 
ITERATION  95 : L=  270.3074716749 DL=  2.35e-06 (MAX-T)=   0.030 
LOCALIZATION SUM CONVERGED


--------------------------------------------------------------------------------
                    LOCALIZED MOLECULAR ORBITAL COMPOSITIONS
--------------------------------------------------------------------------------

The Mulliken populations for each LMO on each atom are computed
The LMO`s will be ordered according to atom index and type
  (A) Strongly localized MO`s have populations of >=0.950 on one atom
  (B) Two center bond orbitals have populations of >=0.850 on two atoms
  (C) Other MO`s are considered to be `delocalized`

FOUND  -  12 strongly local MO`s
       -   0 two center bond MO`s
       -   0 significantly delocalized MO`s

Rather strongly localized orbitals:
MO  26:   2Ar -   0.999788
MO  25:   2Ar -   0.999920
MO  24:   2Ar -   0.999987
MO  23:   2Ar -   0.999987
MO  22:   1Ar -   0.999832
MO  21:   1Ar -   0.999683
MO  20:   1Ar -   0.999955
MO  19:   1Ar -   0.999966
MO  18:   0Ar -   0.999849
MO  17:   0Ar -   0.999591
MO  16:   0Ar -   0.999826
MO  15:   0Ar -   1.000217
Localized MO's were stored in: AR3LD_4.8_3.6_4.4.proc0.loc

Localizing the core orbitals
Localization sum:   329.946525945 
------------------------------------------------------------------------------
                           ORCA ORBITAL LOCALIZATION
------------------------------------------------------------------------------

Input orbitals are from                  ... AR3LD_4.8_3.6_4.4.proc0.loc
Output orbitals are to                   ... AR3LD_4.8_3.6_4.4.proc0.loc
Max. number of iterations                ... 128
Localizations seeded randomly            ... on
Convergence tolerance                    ... 2.000e-07
Using relative localization threshhold   ... 1.000e-08
Threshold for strong local MOs           ... 9.500e-01
Threshold for bond MOs                   ... 8.500e-01
Operator                                 ... 0
Orbital range for localization           ... 0 to 14
Localization criterion                   ... FOSTER-BOYS
Doing the dipole integrals     ... o.k.
Entering Jacobi type localization:
Using Cholesky decomposition as initial guess.
Initial value of the localization sum :   329.490065
ITERATION   0 : L=  329.9351549612 DL=  4.45e-01 (MAX-T)=  45.000 
ITERATION   1 : L=  329.9463920947 DL=  1.12e-02 (MAX-T)=  14.626 
ITERATION   2 : L=  329.9465233052 DL=  1.31e-04 (MAX-T)=   1.406 
ITERATION   3 : L=  329.9465259451 DL=  2.64e-06 (MAX-T)=   0.179 
LOCALIZATION SUM CONVERGED


--------------------------------------------------------------------------------
                    LOCALIZED MOLECULAR ORBITAL COMPOSITIONS
--------------------------------------------------------------------------------

The Mulliken populations for each LMO on each atom are computed
The LMO`s will be ordered according to atom index and type
  (A) Strongly localized MO`s have populations of >=0.950 on one atom
  (B) Two center bond orbitals have populations of >=0.850 on two atoms
  (C) Other MO`s are considered to be `delocalized`

FOUND  -  15 strongly local MO`s
       -   0 two center bond MO`s
       -   0 significantly delocalized MO`s

Rather strongly localized orbitals:
MO  14:   2Ar -   1.000013
MO  13:   2Ar -   1.000000
MO  12:   2Ar -   1.000009
MO  11:   2Ar -   1.000008
MO  10:   2Ar -   1.000008
MO   9:   1Ar -   1.000002
MO   8:   1Ar -   1.000000
MO   7:   1Ar -   1.000003
MO   6:   1Ar -   1.000002
MO   5:   1Ar -   1.000003
MO   4:   0Ar -   1.000010
MO   3:   0Ar -   1.000015
MO   2:   0Ar -   1.000011
MO   1:   0Ar -   1.000000
MO   0:   0Ar -   1.000009
Localized MO's were stored in: AR3LD_4.8_3.6_4.4.proc0.loc

Warning: reference  - re-canonicalizations have been set to INT 1 VIRT 1
Warning: internal orbitals are localized - no re-canonicalization of internal orbitals
Warning: UsePNO is turned on - no re-canonicalization of internal and virtual orbitals
Fock densities were made 
Making Fock matrix and reference energy:

--------------------------
CLOSED-SHELL FOCK OPERATOR
--------------------------

Time needed for Fock operator              ...            1.466 sec
Reference energy                           ...  -1580.402249649

--------------
DLPNO SETTINGS (2015 fully linear scaling implementation)
--------------

TCutMKN:           1.000e-03
TCutPAO:           1.000e-03
TCutPNO:           3.330e-07
TCutPNOSingles:    9.990e-09
TCutEN:            9.700e-01
TCutPAOExt:        1.000e-01
TCutPairs:         1.000e-05
TCutPre:           1.000e-07
TCutOSV:           1.000e-06
TCutDOij:          1.000e-05
TCutDO:            1.000e-02
TCutC:             1.000e-04
TCutCPAO:          1.000e-03
TCutCMO:           1.000e-03
TScaleDOMP2PreScr: 2.000e+00
TScaleMKNMP2PreScr:1.000e+01
TScalePNOMP2PreScr:1.000e+00
PAO overlap thresh 1.000e-08
Using PNOs for Singles Fock computation
Use new domains
Use fully linear algorithm

--------------------------
Mulliken population of the LMOs            ... ok
Performing proximity check                 ... No problems found
Calculating differential overlap integrals ... ok

------------------------
PRESCREENING OF HF PAIRS
------------------------

   .... Finished loop over pairs

                  ============================================
                    30 of   78 PAIRS WERE SKIPPED as HF PAIRS
                  ============================================

Total time spent in skipping HF pairs                 ...     0.000 sec
--------------------------
ELECTRON PAIR PRESCREENING
--------------------------

Dipole-based pair screening          .... used

   TCutDOij = 1.000000e-05
   TCutPre  = 1.000000e-07
   .... Finished loop over pairs
Total time spent in the prescreening                  ...     0.000 sec
sum of pair energies estimated for screened out pairs ...       0.000000000000 Eh
Thresholds for map construction and integral transformation for crude MP2:
   TCutMKN                    ...     1.0e-02
   TCutDO                     ...     2.0e-02
   TCutPairs                  ...     1.0e-05
   TCutPNO_CrudeMP2           ...     3.3e-07
   TCutPNOSingles_CrudeMP2    ...     1.0e-08
--------------------------------
LOCAL RI TRANSFORMATION (IAVPAO)
--------------------------------

Orbital window:      15 to 26
Number of PAOs:      81
Basis functions:     81 (33 shells)
Aux. functions:     276 (84 shells)
Use SHARK:           on
Have SHARK:         yes

Processing maps (0.0 sec)
Average map sizes:
   Aux shells -> MOs              12.0
   Aux shells -> PAOs             81.0
   MOs        -> AO shells        24.8
   PAOs       -> AO shells        33.0

Calculating integrals (0.0 sec, 2.050 MB)
Sorting integrals (0.0 sec, 2.047 MB)
Total time for the integral transformation: 0.0 sec
--------------------------------
INITIAL GUESS AND PNO GENERATION
--------------------------------

Populations of internal orbitals onto Fragments:
  15:      1.000    0.000    0.000  assigned to fragment   1
  16:      1.000    0.000    0.000  assigned to fragment   1
  17:      1.000    0.000    0.000  assigned to fragment   1
  18:      1.000    0.000    0.000  assigned to fragment   1
  19:      0.000    1.000    0.000  assigned to fragment   2
  20:      0.000    1.000    0.000  assigned to fragment   2
  21:      0.000    1.000    0.000  assigned to fragment   2
  22:      0.000    1.000    0.000  assigned to fragment   2
  23:      0.000    0.000    1.000  assigned to fragment   3
  24:      0.000    0.000    1.000  assigned to fragment   3
  25:      0.000    0.000    1.000  assigned to fragment   3
  26:      0.000    0.000    1.000  assigned to fragment   3

Summary assignment:
   4 orbitals assigned to fragment   1
   4 orbitals assigned to fragment   2
   4 orbitals assigned to fragment   3

PNO truncation parameters                   .... 
    PAOOverlapThresh   =        1.000e-08

Pair selection                          .... 
  modified with fragment specific keywords
  Pairs will be selected according to these
  intra(inter)fragment cutoffs
  1 <-> 1
    Intrafragment pairs 1 <-> 1 neglected for CCSD
  1 <-> 2
    TCutPairs          =        1.000e-05
    TCutPNO            =        3.330e-07
    TCutMKN            =        1.000e-02
    TCutDO             =        2.000e-02
    TCutPNOSingles     =        9.990e-09
    TCutMP2Pairs       =        1.000e-06
  1 <-> 3
    TCutPairs          =        1.000e-05
    TCutPNO            =        3.330e-07
    TCutMKN            =        1.000e-02
    TCutDO             =        2.000e-02
    TCutPNOSingles     =        9.990e-09
    TCutMP2Pairs       =        1.000e-06
  2 <-> 2
    Intrafragment pairs 2 <-> 2 neglected for CCSD
  2 <-> 3
    TCutPairs          =        1.000e-05
    TCutPNO            =        3.330e-07
    TCutMKN            =        1.000e-02
    TCutDO             =        2.000e-02
    TCutPNOSingles     =        9.990e-09
    TCutMP2Pairs       =        1.000e-06
  3 <-> 3
    Intrafragment pairs 3 <-> 3 neglected for CCSD

Type of local MP2 treatment                 .... semi-local MP2
Strategy for PNO selection                  .... occupation number selection
Pair density normalization                  .... MP2 norm
Spin component scaling                      .... not used

   .... Finished loop over pairs
Making pair pair interaction lists          ... done

                       ===========================
                         27 OF   60 PAIRS ARE KEPT CCSD PAIRS
                         21 OF   60 PAIRS ARE KEPT MP2 PAIRS
                         12 OF   60 PAIRS ARE SKIPPED
                       ===========================

Total time spent in the initial guess                 ...     0.071 sec
SL-MP2 correlation energy (all non-screened pairs)    ...      -0.001149207043 Eh

Initial PNO correlation energy                        ...      -0.000974649597 Eh
sum of pair energies prescreened and skipped MP2 pairs...       0.000000000000 Eh
sum of pair energies of crude MP2 skipped pairs only  ...       0.000000000000 Eh
sum of MP2 pair energies for pairs that were not kept ...      -0.000146014489 Eh
sum of PNO error estimates for the kept pairs         ...      -0.000028542957 Eh
                                                          --------------------
sum of all corrections                                         -0.000174557446
Initial total correlation energy                               -0.001149207043
Thresholds for map construction and integral transformation for fine MP2 and CCSD(T) calculation:
   TCutMKN   ...     1.0e-03
   TCutDO    ...     1.0e-02
   TCutPairs ...     1.0e-05
   TCutCMO   ...     1.0e-03
   TCutCPAO  ...     1.0e-03

--------------------------------
LOCAL RI TRANSFORMATION (IAVPAO)
--------------------------------

Orbital window:      15 to 26
Number of PAOs:      81
Basis functions:     81 (33 shells)
Aux. functions:     276 (84 shells)
Use SHARK:           on
Have SHARK:         yes

Processing maps (0.0 sec)
Average map sizes:
   Aux shells -> MOs              12.0
   Aux shells -> PAOs             81.0
   MOs        -> AO shells        24.8
   PAOs       -> AO shells        33.0

Calculating integrals (0.0 sec, 2.050 MB)
Sorting integrals (0.0 sec, 2.047 MB)
Total time for the integral transformation: 0.1 sec
--------------------------------
INITIAL GUESS AND PNO GENERATION
--------------------------------

Populations of internal orbitals onto Fragments:
  15:      1.000    0.000    0.000  assigned to fragment   1
  16:      1.000    0.000    0.000  assigned to fragment   1
  17:      1.000    0.000    0.000  assigned to fragment   1
  18:      1.000    0.000    0.000  assigned to fragment   1
  19:      0.000    1.000    0.000  assigned to fragment   2
  20:      0.000    1.000    0.000  assigned to fragment   2
  21:      0.000    1.000    0.000  assigned to fragment   2
  22:      0.000    1.000    0.000  assigned to fragment   2
  23:      0.000    0.000    1.000  assigned to fragment   3
  24:      0.000    0.000    1.000  assigned to fragment   3
  25:      0.000    0.000    1.000  assigned to fragment   3
  26:      0.000    0.000    1.000  assigned to fragment   3

Summary assignment:
   4 orbitals assigned to fragment   1
   4 orbitals assigned to fragment   2
   4 orbitals assigned to fragment   3

PNO truncation parameters                   .... 
    PAOOverlapThresh   =        1.000e-08

Pair selection                          .... 
  modified with fragment specific keywords
  Pairs will be selected according to these
  intra(inter)fragment cutoffs
  1 <-> 1
    Intrafragment pairs 1 <-> 1 neglected for CCSD
  1 <-> 2
    TCutPairs          =        1.000e-05
    TCutPNO            =        3.330e-07
    TCutMKN            =        1.000e-03
    TCutDO             =        1.000e-02
    TCutPNOSingles     =        9.990e-09
    TCutMP2Pairs       =        1.000e-06
  1 <-> 3
    TCutPairs          =        1.000e-05
    TCutPNO            =        3.330e-07
    TCutMKN            =        1.000e-03
    TCutDO             =        1.000e-02
    TCutPNOSingles     =        9.990e-09
    TCutMP2Pairs       =        1.000e-06
  2 <-> 2
    Intrafragment pairs 2 <-> 2 neglected for CCSD
  2 <-> 3
    TCutPairs          =        1.000e-05
    TCutPNO            =        3.330e-07
    TCutMKN            =        1.000e-03
    TCutDO             =        1.000e-02
    TCutPNOSingles     =        9.990e-09
    TCutMP2Pairs       =        1.000e-06
  3 <-> 3
    Intrafragment pairs 3 <-> 3 neglected for CCSD

Type of local MP2 treatment                 .... semi-local MP2
Strategy for PNO selection                  .... occupation number selection
Pair density normalization                  .... MP2 norm
Spin component scaling                      .... not used

   .... Finished loop over pairs

 PNO Occupation Number Statistics: 
  | Av. % of trace(Dij) retained        ...  98.378653438241
  | sigma^2 in % of trace(Dij) retained ...   6.14e-01
  | Av. % of trace(Di) retained         ...  99.999924740002
  | sigma^2 in % of trace(Di) retained  ...   3.22e-09
 Distributions of % trace(Dij) recovered:
  |   [90.0, 99.0) ...    20 ( 74.1 % of all pairs)
  |   [99.0, 99.9) ...     7 ( 25.9 % of all pairs)
 Distributions of % trace(Di) recovered :
  |       >= 99.9  ...    12 (100.0 % of all I-pairs )

Making pair pair interaction lists          ... done

                       ===========================
                         27 OF   60 PAIRS ARE KEPT
                       ===========================

Total time spent in the initial guess                 ...     0.094 sec
SL-MP2 correlation energy (all non-screened pairs)    ...      -0.001149207825 Eh

Initial PNO correlation energy                        ...      -0.000974650328 Eh
sum of pair energies estimated for screened out pairs ...       0.000000000000 Eh
sum of MP2 pair energies for pairs that were not kept ...      -0.000146014489 Eh
sum of PNO error estimates for the kept pairs         ...      -0.000028543008 Eh
                                                          --------------------
sum of all corrections                                         -0.000174557497
Initial total correlation energy                               -0.001149207825
Thresholds for map construction and integral transformation for fine MP2 and CCSD(T) calculation:
   TCutMKN   ...     1.0e-03
   TCutDO    ...     1.0e-02
   TCutPairs ...     1.0e-05
   TCutCMO   ...     1.0e-03
   TCutCPAO  ...     1.0e-03

Time for aux screen maps:            0.000
Time for maps after fine MP2:            0.000
-----------------------------
LOCAL RI TRANSFORMATION (IJV)
-----------------------------

Orbital window:      15 to 26
Basis functions:     81 (33 shells)
Aux. functions:     276 (84 shells)
Use SHARK:           on

Processing maps (0.0 sec)
Average map sizes:
   Aux shells -> MOs(i)           10.7
   Aux shells -> MOs(j)           12.0
   MOs        -> AO shells        24.8

Calculating integrals NOTE: Switching SHARK to General Contraction for MDCI
      If that is not desired please turn off the PGCFlag in the input (%shark PGCFlag 0 end)
(0.4 sec, 0.273 MB)
Sorting integrals (0.0 sec, 0.270 MB)
Total time for the integral transformation: 0.4 sec
--------------------------------
LOCAL RI TRANSFORMATION (VABPAO)
--------------------------------

Number of PAOs:      81
Basis functions:     81 (33 shells)
Aux. functions:     276 (84 shells)
Use SHARK:           on

Processing maps (0.0 sec)
Average map sizes:
   Aux shells -> PAOs             81.0
   PAOs       -> AO shells        33.0

Calculating integrals NOTE: Switching SHARK to General Contraction for MDCI
      If that is not desired please turn off the PGCFlag in the input (%shark PGCFlag 0 end)
(0.4 sec, 13.819 MB)
Finished


-------------------------------------
Pair Pair Term precalculation with     
RI-(ij|mn) and (im|jn) transformation  
ON THE FLY                             
-------------------------------------

   IBatch   1 (of   1)              ... done (    0.059 sec)
Total EXT                           ...           0.059 sec

IAVPA Available = YES
VABPAO Available= YES
IJV Available   = YES
IJK Available   = NO
PNO3i Available = YES
PNO3j Available = YES
PNO4 Available  = YES
---------------------
RI-PNO TRANSFORMATION
---------------------

Total Number of PNOs                   ...   171
Average number of PNOs per pair        ...     6
Maximal number of PNOs per pair        ...     7
   #pairs with  1 -  5 PNOs   :    0
   #pairs with  6 - 10 PNOs   :   27
   #pairs with 11 - 15 PNOs   :    0
   #pairs with 16 - 20 PNOs   :    0
   #pairs with 21 - 25 PNOs   :    0
   #pairs with 26 - 30 PNOs   :    0
   #pairs with 31 - 35 PNOs   :    0
   #pairs with 36 - 40 PNOs   :    0
   #pairs with 41 - 45 PNOs   :    0
   #pairs with 46 - 50 PNOs   :    0

Generation of (ij|ab)[P] integrals            ... on
Generation of (ia|bc)[P],(ja|bc)[P] integrals ... on
Storage of 3 and 4 external integrals         ... on
Generation of ALL (ka|bc)[P] integrals        ... on
Keep RI integrals in memory                   ... off

Ibatch:  1 (of  1)
Starting 2-4 index PNO integral generation ... done

Timings:
Total PNO integral transformation time     ...          0.080 sec
Size of the 3-external file                ...         0 MB
Size of the 4-external file                ...         0 MB
Size of the IKJL file                      ...         0 MB
Size of the all 3-external file            ...         0 MB
Size of the 1-external file                ...         0 MB

Making pair/pair overlap matrices          ... done (    0.014 sec)
Size of the pair overlap file              ... 0 MB
Redoing the guess amplitudes               ... done (    0.000 sec)

-------------------------
FINAL STARTUP INFORMATION
-------------------------

E(0)                                       ...  -1580.402249649
E(SL-MP2)                                  ...     -0.001149208
E(SL-MP2) including corrections            ...     -0.001149208
Initial E(tot)                             ...  -1580.403398857
<T|T>                                      ...      0.000375980
Number of pairs included                   ... 27
Total number of pairs                      ... 78

------------------------------------------------
                  RHF COUPLED CLUSTER ITERATIONS
------------------------------------------------

Number of PNO amplitudes to be optimized   ...         1089
Number of non-PNO amplitudes               ...        78732
Untruncated number of regular amplitudes   ...       227448

Iter       E(tot)           E(Corr)          Delta-E          Residual     Time
  0  -1580.403398731     -0.000974524      0.000174683      0.000372106    0.02
                           *** Turning on DIIS ***
  1  -1580.403408877     -0.000984671     -0.000010146      0.000064152    0.02
  2  -1580.403415444     -0.000991237     -0.000006567      0.000020246    0.02
  3  -1580.403416251     -0.000992044     -0.000000807      0.000003679    0.02
  4  -1580.403416293     -0.000992086     -0.000000042      0.000000696    0.02
               --- The Coupled-Cluster iterations have converged ---

----------------------
COUPLED CLUSTER ENERGY
----------------------

E(0)                                       ...  -1580.402249649
E(CORR)(strong-pairs)                      ...     -0.000992086
E(CORR)(weak-pairs)                        ...     -0.000174557
E(CORR)(corrected)                         ...     -0.001166644
E(TOT)                                     ...  -1580.403416293
Singles Norm <S|S>**1/2                    ...      0.000569673  
T1 diagnostic                              ...      0.000116284  

------------------
LARGEST AMPLITUDES
------------------
  25-> 27  15-> 27       0.001456
  25-> 32  15-> 27       0.001323
  26-> 27  15-> 27       0.001229
  26-> 32  15-> 27       0.001183
  24-> 27  15-> 27       0.001126
  23-> 27  15-> 27       0.001121
  24-> 31  15-> 27       0.001042
  23-> 31  15-> 27       0.001037
  25-> 28  17-> 32       0.000997
  25-> 27  18-> 27       0.000965
  25-> 27  15-> 32       0.000943
  21-> 27  17-> 27       0.000931
  25-> 28  17-> 28       0.000923
  25-> 28  18-> 28       0.000866
  25-> 28  18-> 32       0.000865
  26-> 27  17-> 27       0.000864


 ===========================================================
         LOCAL ENERGY DECOMPOSITION FOR DLPNO-CC METHODS
 ===========================================================

Maximum Iterations for the Localization .. 600
Tolerance for the Localization          ..  1.00e-06
Number of fragments = 3
Fragment  1:  0
Fragment  2:  1
Fragment  3:  2

Populations of internal orbitals onto Fragments:
   0:      1.000    0.000    0.000  assigned to fragment   1
   1:      1.000    0.000    0.000  assigned to fragment   1
   2:      1.000    0.000    0.000  assigned to fragment   1
   3:      1.000    0.000    0.000  assigned to fragment   1
   4:      1.000    0.000    0.000  assigned to fragment   1
   5:      0.000    1.000    0.000  assigned to fragment   2
   6:      0.000    1.000    0.000  assigned to fragment   2
   7:      0.000    1.000    0.000  assigned to fragment   2
   8:      0.000    1.000    0.000  assigned to fragment   2
   9:      0.000    1.000    0.000  assigned to fragment   2
  10:      0.000    0.000    1.000  assigned to fragment   3
  11:      0.000    0.000    1.000  assigned to fragment   3
  12:      0.000    0.000    1.000  assigned to fragment   3
  13:      0.000    0.000    1.000  assigned to fragment   3
  14:      0.000    0.000    1.000  assigned to fragment   3
  15:      1.000    0.000    0.000  assigned to fragment   1
  16:      1.000    0.000    0.000  assigned to fragment   1
  17:      1.000    0.000    0.000  assigned to fragment   1
  18:      1.000    0.000    0.000  assigned to fragment   1
  19:      0.000    1.000    0.000  assigned to fragment   2
  20:      0.000    1.000    0.000  assigned to fragment   2
  21:      0.000    1.000    0.000  assigned to fragment   2
  22:      0.000    1.000    0.000  assigned to fragment   2
  23:      0.000    0.000    1.000  assigned to fragment   3
  24:      0.000    0.000    1.000  assigned to fragment   3
  25:      0.000    0.000    1.000  assigned to fragment   3
  26:      0.000    0.000    1.000  assigned to fragment   3

Summary assignment:
   9 orbitals assigned to fragment   1
   9 orbitals assigned to fragment   2
   9 orbitals assigned to fragment   3


--------------------------------
CORRELATION ENERGY DECOMPOSITION
--------------------------------


--------------------------------------------------
INTER- vs INTRA-FRAGMENT CORRELATION ENERGIES (Eh)
--------------------------------------------------

                                   Fragment   1            Fragment   2            Fragment   3            
                         ----------------------  ----------------------  ----------------------  
Intra strong pairs               0.000000000000         0.000000000000         0.000000000000  sum=        0.000000000000
Intra weak pairs                 0.000000000000         0.000000000000         0.000000000000  sum=        0.000000000000
Singles contribution            -0.000000000076         0.000000000002        -0.000000000081  sum=       -0.000000000155
                         ----------------------  ----------------------  ----------------------  
                                -0.000000000076         0.000000000002        -0.000000000081  sum=       -0.000000000155


Interaction correlation for Fragments   2 and   1:
--------------------------------------------------
Inter strong pairs               -0.000146939201 (   -0.092 kcal/mol)
Inter weak pairs                 -0.000068735534 (   -0.043 kcal/mol)
                          ----------------------
Total interaction                -0.000215674736 (   -0.135 kcal/mol)

Interaction correlation for Fragments   3 and   1:
--------------------------------------------------
Inter strong pairs               -0.000802718698 (   -0.504 kcal/mol)
Inter weak pairs                 -0.000026052304 (   -0.016 kcal/mol)
                          ----------------------
Total interaction                -0.000828771001 (   -0.520 kcal/mol)
Interaction correlation for Fragments   3 and   2:
--------------------------------------------------
Inter strong pairs               -0.000042428430 (   -0.027 kcal/mol)
Inter weak pairs                 -0.000079769659 (   -0.050 kcal/mol)
                          ----------------------
Total interaction                -0.000122198089 (   -0.077 kcal/mol)



Sum of INTRA-fragment correlation energies  =        -0.000000000155
Sum of INTER-fragment correlation energies  =        -0.001166643826
                                              ---------------------
Total correlation energy                    =        -0.001166643981

---------------------------------------------
DECOMPOSITION OF CCSD STRONG PAIRS INTO      
    DOUBLE EXCITATION TYPES (Eh)             
---------------------------------------------

Foster-Boys localization is used for localizing PNOs

Intra fragment contributions: 
INTRA Fragment 1                        0.000000000 
INTRA Fragment 2                        0.000000000 
INTRA Fragment 3                        0.000000000 

Charge transfer contributions: 
Charge Transfer 1 to 2                 -0.000000351 
Charge Transfer 1 to 3                 -0.000024900 
Charge Transfer 2 to 1                 -0.000000356 
Charge Transfer 2 to 3                 -0.000000043 
Charge Transfer 3 to 1                 -0.000019964 
Charge Transfer 3 to 2                 -0.000000059 

Dispersion contributions: 
Dispersion  2,1                        -0.000146233 
Dispersion  3,1                        -0.000757855 
Dispersion  3,2                        -0.000042327 

Singles contributions:                   
Singles energy                         -0.000000000 
 
Delocalized contributions: 
Delocalized correlation                 0.000000000 

#Time for LED analysis ..       0.0 (sec)



--------------------------------------------------------------------------------
                                    TIMINGS
--------------------------------------------------------------------------------


Total execution time                   ...        3.658 sec

Localization of occupied MO's          ...        0.202 sec (  5.5%)
Fock Matrix Formation                  ...        1.466 sec ( 40.1%)
Global overlap, Fock, MKN matrices     ...        0.176 sec (  4.8%)
Differential overlap integrals         ...        0.126 sec (  3.4%)
Organizing maps                        ...        0.001 sec (  0.0%)
RI 3-index integral generations        ...        0.855 sec ( 23.4%)
RI-PNO integral transformation         ...        0.154 sec (  4.2%)
Initial Guess                          ...        0.168 sec (  4.6%)
DIIS Solver                            ...        0.002 sec (  0.0%)
State Vector Update                    ...        0.000 sec (  0.0%)
Sigma-vector construction              ...        0.079 sec (  2.2%)
  <D|H|D>(0-ext)                       ...        0.009 sec ( 10.8% of sigma)
  <D|H|D>(2-ext)                       ...        0.008 sec (  9.6% of sigma)
  <D|H|D>(4-ext-corr)                  ...        0.002 sec (  2.6% of sigma)
  CCSD doubles correction              ...        0.002 sec (  2.1% of sigma)
  <S|H|S>                              ...        0.013 sec ( 16.6% of sigma)
  <S|H|D>(1-ext)                       ...        0.007 sec (  8.6% of sigma)
  Fock-dressing                        ...        0.024 sec ( 31.1% of sigma)
  Singles amplitudes                   ...        0.002 sec (  2.3% of sigma)
  (ik|jl)-dressing                     ...        0.006 sec (  7.2% of sigma)
  (ij|ab),(ia|jb)-dressing             ...        0.003 sec (  4.4% of sigma)
Local Energy Decomposition             ...        0.009 sec (  0.2% of ALL)


Maximum memory used throughout the entire MDCI-calculation: 51.2 MB
----------------------------   ----------------
Inter-fragment dispersion       -0.001120973
----------------------------   ----------------


-------------------------   --------------------
FINAL SINGLE POINT ENERGY     -1580.403370622038 
-------------------------   --------------------


------------------------------------------------------------------------------
                              ORCA PROPERTY CALCULATIONS
------------------------------------------------------------------------------

GBWName                                 ... AR3LD_4.8_3.6_4.4.gbw
Number of atoms                         ...      3
Number of basis functions               ...    150
Max core memory                         ...   1024 MB

Electric properties:
Dipole moment                           ... YES
Quadrupole moment                       ...  NO
Static polarizability (Dipole/Dipole)   ...  NO
Static polarizability (Dipole/Quad.)    ...  NO
Static polarizability (Quad./Quad.)     ...  NO
Static polarizability (Velocity)        ...  NO

Atomic electric properties:
Dipole moment                           ...  NO
Quadrupole moment                       ...  NO
Static polarizability                   ...  NO

Choice of electric origin               ... Center of mass
Position of electric origin             ...     3.435866     2.168198     0.000000

General magnetic properties:
Magnetizability                         ...  NO

EPR properties:
g-Tensor (aka g-matrix)                 ...  NO
Zero-Field splitting spin-orbit         ...  NO
Zero-field splitting spin-spin          ...  NO
Hyperfine couplings                     ...  NO (   0 nuclei)
Quadrupole couplings                    ...  NO (   0 nuclei)
Contact density                         ...  NO (   0 nuclei)

NMR properties:
Chemical shifts                         ...  NO (   0 nuclei)
Spin-rotation constants                 ...  NO (   0 nuclei)
Spin-spin couplings                     ...  NO (   0 nuclei,    0 pairs)

Choice of magnetic origin               ... GIAO
Position of magnetic origin             ...     0.000000     0.000000     0.000000

Properties with geometric perturbations:
SCF Hessian                             ...  NO
IR spectrum                             ...  NO
VCD spectrum                            ...  NO
X-ray spectroscopy properties:
SCF XES/XAS/RIXS spectra                ...  NO


-------------
DIPOLE MOMENT
-------------

Method             : SCF
Type of density    : Electron Density
Multiplicity       :   1
Irrep              :   0
Energy             : -1580.4022496491747916 Eh
Relativity type    : 
Basis              : AO
                                X                 Y                 Z
Electronic contribution:      0.000052196      -0.000160700      -0.000000000
Nuclear contribution   :      0.000000000       0.000000000       0.000000000
                        -----------------------------------------
Total Dipole Moment    :      0.000052196      -0.000160700      -0.000000000
                        -----------------------------------------
Magnitude (a.u.)       :      0.000168965
Magnitude (Debye)      :      0.000429474



--------------------
Rotational spectrum 
--------------------
 
Rotational constants in cm-1:             0.067177             0.034670             0.022868 
Rotational constants in MHz :          2013.928237          1039.380139           685.563577 

Dipole components along the rotational axes: 
x,y,z [a.u.] :    -0.000129    -0.000110    -0.000000 
x,y,z [Debye]:    -0.000327    -0.000278    -0.000000 

 

Dipole moment calculation done in   0.0 sec 

Maximum memory used throughout the entire PROP-calculation: 6.8 MB

--------------------------------
SUGGESTED CITATIONS FOR THIS RUN
--------------------------------

Below you find a list of papers that are relevant to this ORCA run
We neither can nor want to force you to cite these papers, but we appreciate if you do
You receive ORCA, which is the product of decades of hard work by many enthusiastic individuals, for free
The only thing we kindly ask in return is that you cite our papers,
We deeply appreciate it, if you show your appreciation for ORCA by not just citing the generic ORCA reference.

Please note that relegating all ORCA citations to the supporting information does *not* help us.
SI sections are not indexed - citations you put there will not count into any citation statistics
But we need these citations in order to attract the funding resources that allow us to do what we are doing

Therefore, if you are a happy ORCA user, please consider citing a few of the papers listed below in the main body of your paper

In addition to the list printed below, the program has created the file AR3LD_4.8_3.6_4.4.bibtex that contains the list in bibtex format
You can import this file easily into all common literature databanks and citation aid programs


List of essential papers. We consider these as the minimum necessary citations

  1. Neese,F.
     Software update: the ORCA program system, version 5.0
     WIRES Comput. Molec. Sci., 2022 12(1)e1606
     doi.org/10.1002/wcms.1606

List of papers to cite with high priority. The work reported in these papers was absolutely
necessary for this run to complete.
Our perspective: the developers of density functionals and basis sets usually get cited in chemistry papers
Good! But without the algorithms to do something with them, the functionals or basis sets would not do anything.
Hence, in our opinion, the algorithm design and method developments papers are equally worthy of getting cited

  1. Neese,F.; Hansen,A.; Liakos,D.G.
     Efficient and accurate approximations to the local coupled cluster singles doubles method using a truncated pair natural orbital basis
     J. Chem. Phys., 2009 131 064103
     doi.org/10.1063/1.3173827
  2. Neese,F.; Wennmohs,F.; Hansen,A.
     Efficient and accurate local approximations to coupled-electron pair approaches: An attempt to revive the pair natural orbital method
     J. Chem. Phys., 2009 130 114108
     doi.org/10.1063/1.3086717
  3. Riplinger,C.; Neese,F.
     An efficient and near linear scaling pair natural orbital based local coupled cluster method
     J. Chem. Phys., 2013 138(3)Art. No. 034106
     doi.org/10.1063/1.4773581
  4. Datta,D.; Kossmann,S.; Neese,F.
     Analytic energy derivatives for the calculation of the first-order molecular properties using the domain-based local pair-natural orbital coupled-cluster theory
     J. Chem. Phys., 2016 145 
     doi.org/10.1063/1.4962369
  5. Riplinger,C.; Pinski,P.; Becker,U.; Valeev,E.F.; Neese,F.
     Sparse maps-A systematic infrastructure for reduced-scaling electronic structure methods. II. Linear scaling domain based pair natural orbital coupled cluster theory
     J. Chem. Phys., 2016 144 
     doi.org/10.1063/1.4939030
  6. Schneider,W.B.; Bistoni,G.; Sparta,M.; Saitow,M.; Riplinger,C.; Auer,A.A.; Neese,F.
     Decomposition of Intermolecular Interaction Energies within the Local Pair Natural Orbital Coupled Cluster Framework
     J. Theo. Comp. Chem., 2016 12 4778-4792
     doi.org/10.1021/acs.jctc.6b00523
  7. Bistoni,G.; Riplinger,C.; Minenkov,Y.; Cavallo,L.; Auer,A.A.; Neese,F.
     Treating Subvalence Correlation Effects in Domain Based Pair Natural Orbital Coupled Cluster Calculations: An Out-of-the-Box Approach
     J. Theo. Comp. Chem., 2017 13 3220-3227
     doi.org/10.1021/acs.jctc.7b00352
  8. Altun,A.; Neese,F.; Bistoni,G.
     HFLD: A Nonempirical London Dispersion-Corrected Hartree-Fock Method for the Quantification and Analysis of Noncovalent Interaction Energies of Large Molecular Systems
     J. Chem. Theory Comput., 2019 15 5894-5907
     doi.org/10.1021/acs.jctc.9b00425
  9. Neese,F.
     The SHARK Integral Generation and Digestion System
     J. Comp. Chem., 2022  1-16
     doi.org/10.1002/jcc.26942
 10. Altun,A.; Neese,F.; Bistoni,G.
     Open-Shell Variant of the London Dispersion-Corrected Hartree–Fock Method (HFLD) for the Quantification and Analysis of Noncovalent Interaction Energies
     J. Chem. Theory Comput., 2022 XX XXXX-XXXX
     doi.org/10.1021/acs.jctc.1c01295

List of suggested additional citations. These are papers that are important in the 'surrounding' of 
of this run, or papers that preceded the highly important papers. If you like your results we are grateful for a citation.

  1. Neese,F.
     The ORCA program system
     WIRES Comput. Molec. Sci., 2012 2(1)73-78
     doi.org/10.1002/wcms.81
  2. Neese,F.
     Software update: the ORCA program system, version 4.0
     WIRES Comput. Molec. Sci., 2018 8(1)1-6
     doi.org/10.1002/wcms.1327
  3. Neese,F.; Wennmohs,F.; Becker,U.; Riplinger,C.
     The ORCA quantum chemistry program package
     J. Chem. Phys., 2020 152 Art. No. L224108
     doi.org/10.1063/5.0004608
  4. Bistoni,G.
     Finding chemical concepts in the Hilbert space: Coupled cluster analyses of noncovalent interactions
     WIRES Comput. Molec. Sci., 2020 10(3)e1442
     doi.org/10.1002/wcms.1442

List of optional additional citations

  1. Neese,F.
     Approximate second-order SCF convergence for spin unrestricted wavefunctions
     Chem. Phys. Lett., 2000 325(1-3)93-98
     doi.org/10.1016/s0009-2614(00)00662-x

Timings for individual modules:

Sum of individual times          ...        8.239 sec (=   0.137 min)
Startup calculation              ...        1.146 sec (=   0.019 min)  13.9 %
SCF iterations                   ...        3.197 sec (=   0.053 min)  38.8 %
Property integrals               ...        0.134 sec (=   0.002 min)   1.6 %
Property calculations            ...        0.061 sec (=   0.001 min)   0.7 %
MDCI module                      ...        3.702 sec (=   0.062 min)  44.9 %
                             ****ORCA TERMINATED NORMALLY****
TOTAL RUN TIME: 0 days 0 hours 0 minutes 8 seconds 297 msec
