
                                 *****************
                                 * O   R   C   A *
                                 *****************

                                            #,                                       
                                            ###                                      
                                            ####                                     
                                            #####                                    
                                            ######                                   
                                           ########,                                 
                                     ,,################,,,,,                         
                               ,,#################################,,                 
                          ,,##########################################,,             
                       ,#########################################, ''#####,          
                    ,#############################################,,   '####,        
                  ,##################################################,,,,####,       
                ,###########''''           ''''###############################       
              ,#####''   ,,,,##########,,,,          '''####'''          '####       
            ,##' ,,,,###########################,,,                        '##       
           ' ,,###''''                  '''############,,,                           
         ,,##''                                '''############,,,,        ,,,,,,###''
      ,#''                                            '''#######################'''  
     '                                                          ''''####''''         
             ,#######,   #######,   ,#######,      ##                                
            ,#'     '#,  ##    ##  ,#'     '#,    #''#        ,####,   ,####,        
            ##       ##  ##   ,#'  ##            #'  '#       #'       #'  '#        
            ##       ##  #######   ##           ,######,      #####,   #    #        
            '#,     ,#'  ##    ##  '#,     ,#' ,#      #,     #,   #   #,  ,#        
             '#######'   ##     ##  '#######'  #'      '#     '####' # '####'        



                #########################################################
                #                        -***-                          #
                #          Department of theory and spectroscopy        #
                #                                                       #
                #                      Frank Neese                      #
                #                                                       #
                #     Directorship, Architecture, Infrastructure        #
                #                    SHARK, DRIVERS                     #
                #        Core code/Algorithms in most modules           #
                #                                                       #
                #        Max Planck Institute fuer Kohlenforschung      #
                #                Kaiser Wilhelm Platz 1                 #
                #                 D-45470 Muelheim/Ruhr                 #
                #                      Germany                          #
                #                                                       #
                #                  All rights reserved                  #
                #                        -***-                          #
                #########################################################


                         Program Version 6.0.0  -   RELEASE  -


 With contributions from (in alphabetic order):
   Daniel Aravena         : Magnetic Suceptibility
   Michael Atanasov       : Ab Initio Ligand Field Theory (pilot matlab implementation)
   Alexander A. Auer      : GIAO ZORA, VPT2 properties, NMR spectrum
   Ute Becker             : All parallelization in ORCA, NUMFREQ, NUMCALC
   Giovanni Bistoni       : ED, misc. LED, open-shell LED, HFLD
   Martin Brehm           : Molecular dynamics
   Dmytro Bykov           : pre 5.0 version of the SCF Hessian
   Marcos Casanova-Páez   : Triplet and SCS-CIS(D). UHF-(DLPNO)-IP/EA/STEOM-CCSD. UHF-CVS-IP/STEOM-CCSD
   Vijay G. Chilkuri      : MRCI spin determinant printing, contributions to CSF-ICE
   Pauline Colinet        : FMM embedding
   Dipayan Datta          : RHF DLPNO-CCSD density
   Achintya Kumar Dutta   : EOM-CC, STEOM-CC
   Nicolas Foglia         : Exact transition moments, OPA infrastructure, MCD improvements
   Dmitry Ganyushin       : Spin-Orbit,Spin-Spin,Magnetic field MRCI
   Miquel Garcia          : C-PCM and meta-GGA Hessian, CCSD/C-PCM, Gaussian charge scheme
   Tiago L. C. Gouveia    : GS-ROHF, GS-ROCIS
   Yang Guo               : DLPNO-NEVPT2, F12-NEVPT2, CIM, IAO-localization
   Andreas Hansen         : Spin unrestricted coupled pair/coupled cluster methods
   Ingolf Harden          : AUTO-CI MPn and infrastructure 
   Benjamin Helmich-Paris : MC-RPA, TRAH-(SCF,CASSCF), AVAS, COSX integrals, SCF dyn. polar.
   Lee Huntington         : MR-EOM, pCC
   Robert Izsak           : Overlap fitted RIJCOSX, COSX-SCS-MP3, EOM
   Riya Kayal             : Wick's Theorem for AUTO-CI, AUTO-CI UHF-CCSDT
   Emily Kempfer          : AUTO-CI, RHF CISDT and CCSDT
   Christian Kollmar      : KDIIS, OOCD, Brueckner-CCSD(T), CCSD density, CASPT2, CASPT2-K, improved NEVPT2
   Axel Koslowski         : Symmetry handling
   Simone Kossmann        : Meta GGA functionals, TD-DFT gradient, OOMP2, (MP2 Hessian; deprecated post 5.0)
   Lucas Lang             : DCDCAS
   Marvin Lechner         : AUTO-CI (C++ implementation), FIC-MRCC
   Spencer Leger          : CASSCF response
   Dagmar Lenk            : GEPOL surface, SMD, ORCA-2-JSON
   Dimitrios Liakos       : Extrapolation schemes; Compound Job, initial MDCI parallelization
   Dimitrios Manganas     : Further ROCIS development; embedding schemes. LFT, Crystal Embedding
   Dimitrios Pantazis     : SARC Basis sets
   Anastasios Papadopoulos: AUTO-CI, single reference methods and gradients
   Taras Petrenko         : pre 6.0 DFT Hessian and TD-DFT gradient, (ASA, deprecated), ECA, 1-Electron XAS/XES, NRVS
   Peter Pinski           : DLPNO-MP2, DLPNO-MP2 Gradient
   Christoph Reimann      : Effective Core Potentials
   Marius Retegan         : Local ZFS, SOC
   Christoph Riplinger    : Optimizer, TS searches, QM/MM, DLPNO-CCSD(T), (RO)-DLPNO pert. Triples
   Michael Roemelt        : Original ROCIS implementation
   Masaaki Saitow         : Open-shell DLPNO-CCSD energy and density
   Barbara Sandhoefer     : DKH picture change effects
   Kantharuban Sivalingam : CASSCF convergence/infrastructure, NEVPT2 and variants, FIC-MRCI
   Bernardo de Souza      : ESD, SOC TD-DFT
   Georgi Stoychev        : AutoAux, RI-MP2 NMR, DLPNO-MP2 response, X2C
   Van Anh Tran           : RI-MP2 g-tensors
   Willem Van den Heuvel  : Paramagnetic NMR
   Zikuan Wang            : NOTCH, Electric field optimization 
   Frank Wennmohs         : Technical directorship and infrastructure
   Hang Xu                : AUTO-CI-Response properties 


 We gratefully acknowledge several colleagues who have allowed us to
 interface, adapt or use parts of their codes:
   Stefan Grimme, W. Hujo, H. Kruse, P. Pracht,  : VdW corrections, initial TS optimization,
                  C. Bannwarth, S. Ehlert,         DFT functionals, gCP, sTDA/sTD-DF
                  L. Wittmann, M. Mueller
   Ed Valeev, F. Pavosevic, A. Kumar             : LibInt (2-el integral package), F12 methods
   Garnet Chan, S. Sharma, J. Yang, R. Olivares  : DMRG
   Ulf Ekstrom                                   : XCFun DFT Library
   Mihaly Kallay                                 : mrcc  (arbitrary order and MRCC methods)
   Frank Weinhold                                : gennbo (NPA and NBO analysis)
   Simon Mueller                                 : openCOSMO-RS
   Christopher J. Cramer and Donald G. Truhlar   : smd solvation model
   Lars Goerigk                                  : TD-DFT with DH, B97 family of functionals
   V. Asgeirsson, H. Jonsson                     : NEB implementation
   FAccTs GmbH                                   : IRC, NEB, NEB-TS, DLPNO-Multilevel, CI-OPT
                                                   MM, QMMM, 2- and 3-layer-ONIOM, Crystal-QMMM,
                                                   LR-CPCM, SF, NACMEs, symmetry and pop. for TD-DFT,
                                                   nearIR, NL-DFT gradient (VV10), updates on ESD,
                                                   ML-optimized integration grids, MBIS, APM,
                                                   GOAT, DOCKER, SOLVATOR, interface openCOSMO-RS
   S Lehtola, MJT Oliveira, MAL Marques          : LibXC Library
   Liviu Ungur et al                             : ANISO software


 Your calculation uses the libint2 library for the computation of 2-el integrals
 For citations please refer to: http://libint.valeyev.net

 Your ORCA version has been built with support for libXC version: 6.2.2
 For citations please refer to: https://libxc.gitlab.io

 This ORCA versions uses:
   CBLAS   interface :  Fast vector & matrix operations
   LAPACKE interface :  Fast linear algebra routines
   SCALAPACK package :  Parallel linear algebra routines
   Shared memory     :  Shared parallel matrices
   BLAS/LAPACK       :  OpenBLAS 0.3.27  USE64BITINT DYNAMIC_ARCH NO_AFFINITY Haswell SINGLE_THREADED
        Core in use  :  Haswell
   Copyright (c) 2011-2014, The OpenBLAS Project


================================================================================

----- Orbital basis set information -----
Your calculation utilizes the basis: aug-cc-pVDZ 
    H, B-Ne : Obtained from the ccRepo (grant-hill.group.shef.ac.uk/ccrepo) Feb. 2017
              R. A. Kendall, T. H. Dunning, Jr., R. J. Harrison, J. Chem. Phys. 96, 6796 (1992)
         He : Obtained from the ccRepo (grant-hill.group.shef.ac.uk/ccrepo) Feb. 2017
              D. E. Woon, T. H. Dunning, Jr., J. Chem. Phys. 100, 2975 (1994)
  Li-Be, Na : Obtained from the ccRepo (grant-hill.group.shef.ac.uk/ccrepo) Feb. 2017
              B. P. Prascher, D. E. Woon, K. A. Peterson, T. H. Dunning, Jr., A. K. Wilson, Theor. Chem. Acc. 128, 69 (2011)
         Mg : Obtained from the Peterson Research Group Website (tyr0.chem.wsu.edu/~kipeters) Feb. 2017
              B. P. Prascher, D. E. Woon, K. A. Peterson, T. H. Dunning, Jr., A. K. Wilson, Theor. Chem. Acc. 128, 69 (2011)
      Al-Ar : Obtained from the ccRepo (grant-hill.group.shef.ac.uk/ccrepo) Feb. 2017
              D. E. Woon, T. H. Dunning, Jr., J. Chem. Phys. 98, 1358 (1993)
      Sc-Zn : Obtained from the ccRepo (grant-hill.group.shef.ac.uk/ccrepo) Feb. 2017
              N. B. Balabanov, K. A. Peterson, J. Chem. Phys. 123, 064107 (2005)
              N. B. Balabanov, K. A. Peterson, J. Chem. Phys. 125, 074110 (2006)
      Ga-Kr : Obtained from the ccRepo (grant-hill.group.shef.ac.uk/ccrepo) Feb. 2017
              A. K. Wilson, D. E. Woon, K. A. Peterson, T. H. Dunning, Jr., J. Chem. Phys. 110, 7667 (1999)

----- AuxC basis set information -----
Your calculation utilizes the auxiliary basis: aug-cc-pVDZ/C 
  H-He, B, Ne, Al-Ar, Ga-Ge, Se-Br : Obtained from the EMSL Basis Set Exchange (bse.pnl.gov) Feb. 2017
                                     F. Weigend, A. Kohn, C. Hattig, J. Chem. Phys. 116, 3175 (2002)
                            Be, Mg : Obtained from the TURBOMOLE 7.0 basis set library
                                     C. Haettig, Phys. Chem. Chem. Phys. 7, 59 (2005)
                               C-F : Obtained from the EMSL Basis Set Exchange (bse.pnl.gov) Feb. 2017
                                     C. Haettig, Phys. Chem. Chem. Phys. 7, 59 (2005)
                                     F. Weigend, A. Kohn, C. Hattig, J. Chem. Phys. 116, 3175 (2002)
                                As : Obtained from the EMSL Basis Set Exchange (bse.pnl.gov) Feb. 2017
                                     C. Haettig, G. Schmitz, J. Kossmann, Phys. Chem. Chem. Phys. 14, 6549 (2012)
                                Kr : Obtained from the TURBOMOLE 7.0 basis set library
                                     F. Weigend, A. Kohn, C. Hattig, J. Chem. Phys. 116, 3175 (2002)
                                     S function revised in Sep. 2009

================================================================================
                                        WARNINGS
                       Please study these warnings very carefully!
================================================================================


WARNING: Post HF methods need fully converged wavefunctions
  ===> : Setting SCFConvForced true
         You can overwrite this default with %scf ConvForced false 


================================================================================
                                       INPUT FILE
================================================================================
NAME = AR3LD_3.2_4.4_4.4.inp
|  1> # MP2 scan of the potential energy curve for Ar...Ar
|  2>                 ! HFLD aug-cc-pvdz aug-cc-pvdz/C verytightscf
|  3>                 *xyz 0 1
|  4>                 Ar(1)	0    0	0.00000000000000
|  5>                 Ar(2)	4.4	0    0.00000000000000
|  6>                 Ar(3)	3.2363636363636368	2.9809311319155194    0.00000000000000
|  7>                 **                         ****END OF INPUT****
================================================================================

                       ****************************
                       * Single Point Calculation *
                       ****************************

---------------------------------
CARTESIAN COORDINATES (ANGSTROEM)
---------------------------------
  Ar     0.000000    0.000000    0.000000
  Ar     4.400000    0.000000    0.000000
  Ar     3.236364    2.980931    0.000000

----------------------------
CARTESIAN COORDINATES (A.U.)
----------------------------
  NO LB      ZA    FRAG     MASS         X           Y           Z
   0 Ar   18.0000    1    39.948    0.000000    0.000000    0.000000
   1 Ar   18.0000    2    39.948    8.314795    0.000000    0.000000
   2 Ar   18.0000    3    39.948    6.115841    5.633143    0.000000

----------------------------------------------
CARTESIAN COORDINATES OF FRAGMENTS (ANGSTROEM)
----------------------------------------------

 FRAGMENT 1 
  Ar    0.000000    0.000000    0.000000

 FRAGMENT 2 
  Ar    4.400000    0.000000    0.000000

 FRAGMENT 3 
  Ar    3.236364    2.980931    0.000000

--------------------------------
INTERNAL COORDINATES (ANGSTROEM)
--------------------------------
 Ar     0   0   0     0.000000000000     0.00000000     0.00000000
 Ar     1   0   0     4.400000000000     0.00000000     0.00000000
 Ar     2   1   0     3.200000000000    68.67631374     0.00000000

---------------------------
INTERNAL COORDINATES (A.U.)
---------------------------
 Ar     0   0   0     0.000000000000     0.00000000     0.00000000
 Ar     1   0   0     8.314794989254     0.00000000     0.00000000
 Ar     2   1   0     6.047123628548    68.67631374     0.00000000

---------------------
BASIS SET INFORMATION
---------------------
There are 1 groups of distinct atoms

 Group   1 Type Ar  : 35s16p2d contracted to 5s4p2d pattern {11111111/7711/11}

Atom   0Ar   basis set group =>   1
Atom   1Ar   basis set group =>   1
Atom   2Ar   basis set group =>   1
---------------------------------
AUXILIARY/C BASIS SET INFORMATION
---------------------------------
There are 1 groups of distinct atoms

 Group   1 Type Ar  : 10s8p6d4f contracted to 10s8p6d4f pattern {1111111111/11111111/111111/1111}

Atom   0Ar   basis set group =>   1
Atom   1Ar   basis set group =>   1
Atom   2Ar   basis set group =>   1
------------------------------------------------------------------------------
                             ORCA STARTUP CALCULATIONS
------------------------------------------------------------------------------
------------------------------------------------------------------------------
                   ___                                                        
                  /   \      - P O W E R E D   B Y -                         
                 /     \                                                     
                 |  |  |   _    _      __       _____    __    __             
                 |  |  |  | |  | |    /  \     |  _  \  |  |  /  |          
                  \  \/   | |  | |   /    \    | | | |  |  | /  /          
                 / \  \   | |__| |  /  /\  \   | |_| |  |  |/  /          
                |  |  |   |  __  | /  /__\  \  |    /   |      \           
                |  |  |   | |  | | |   __   |  |    \   |  |\   \          
                \     /   | |  | | |  |  |  |  | |\  \  |  | \   \       
                 \___/    |_|  |_| |__|  |__|  |_| \__\ |__|  \__/        
                                                                              
                      - O R C A' S   B I G   F R I E N D -                    
                                      &                                       
                       - I N T E G R A L  F E E D E R -                       
                                                                              
 v1 FN, 2020, v2 2021, v3 2022-2024                                           
------------------------------------------------------------------------------


----------------------
SHARK INTEGRAL PACKAGE
----------------------

Number of atoms                             ...      3
Number of basis functions                   ...    150
Number of shells                            ...     72
Maximum angular momentum                    ...      2
Integral batch strategy                     ... SHARK/LIBINT Hybrid
RI-J (if used) integral strategy            ... SPLIT-RIJ (Revised 2003 algorithm where possible)
Printlevel                                  ...      1
Contraction scheme used                     ... PARTIAL GENERAL contraction
Prescreening option                         ... SCHWARTZ
   Thresh                                   ... 1.000e-12
   Tcut                                     ... 1.000e-14
   Tpresel                                  ... 1.000e-14 
Coulomb Range Separation                    ... NOT USED
Exchange Range Separation                   ... NOT USED
Multipole approximations                    ... NOT USED
Finite Nucleus Model                        ... NOT USED
CABS basis                                  ... NOT available
Auxiliary Coulomb fitting basis             ... NOT available
Auxiliary J/K fitting basis                 ... NOT available
Auxiliary Correlation fitting basis         ... AVAILABLE
   # of basis functions in Aux-C            ...    276
   # of shells in Aux-C                     ...     84
   Maximum angular momentum in Aux-C        ...      3
Auxiliary 'external' fitting basis          ... NOT available

Checking pre-screening integrals            ... done (  0.0 sec) Dimension = 72
Save PGC pre-screening integrals            ... done (  0.0 sec) Dimension = 72
Calculate PGC overlap integrals             ... done (  0.0 sec) Dimension = 33
Calculating pre-screening integrals (ORCA)  ... done (  0.1 sec) Dimension = 33
Check shell pair data                       ... done (  0.0 sec)
Shell pair information
Shell pair cut-off parameter TPreSel        ...   1.0e-14
Total number of shell pairs                 ...      2628
Shell pairs after pre-screening             ...      1683
Total number of primitive shell pairs       ...      2628
Primitive shell pairs kept                  ...      1683
          la=0 lb=0:    440 shell pairs
          la=1 lb=0:    635 shell pairs
          la=1 lb=1:    251 shell pairs
          la=2 lb=0:    194 shell pairs
          la=2 lb=1:    142 shell pairs
          la=2 lb=2:     21 shell pairs

Calculating one electron integrals          ... done (  0.0 sec)
Calculating RI/C V-Matrix + Cholesky decomp.... done (  0.0 sec)
Calculating Nuclear repulsion               ... done (  0.0 sec) ENN=    131.512563017284 Eh

Diagonalization of the overlap matrix:
Smallest eigenvalue                        ... 2.344e-02
Time for diagonalization                   ...    0.001 sec
Threshold for overlap eigenvalues          ... 1.000e-07
Number of eigenvalues below threshold      ... 0
Time for construction of square roots      ...    0.000 sec
Total time needed                          ...    0.001 sec

-------------------
DFT GRID GENERATION
-------------------

General Integration Accuracy     IntAcc      ... 4.388
Radial Grid Type                 RadialGrid  ... OptM3 with GC (2021)
Angular Grid (max. ang.)         AngularGrid ... 4 (Lebedev-302)
Angular grid pruning method      GridPruning ... 4 (adaptive)
Weight generation scheme         WeightScheme... mBecke (2022)
Basis function cutoff            BFCut       ... 1.0000e-12
Integration weight cutoff        WCut        ... 1.0000e-14
Partially contracted basis set               ... off
Rotationally invariant grid construction     ... off
Angular grids for H and He will be reduced by one unit

Total number of grid points                  ...    22084
Total number of batches                      ...      347
Average number of points per batch           ...       63
Average number of grid points per atom       ...     7361

---------------------
SHARK GRID GENERATION
---------------------

General Integration Accuracy     IntAcc      ... 4.388
Radial Grid Type                 RadialGrid  ... OptM3 with GC (2021)
Angular Grid (max. ang.)         AngularGrid ... 4 (Lebedev-302)
Angular grid pruning method      GridPruning ... 4 (adaptive)
Weight generation scheme         WeightScheme... mBecke (2022)
Basis function cutoff            BFCut       ... 1.0000e-12
Integration weight cutoff        WCut        ... 1.0000e-14
Partially contracted basis set               ... off
Rotationally invariant grid construction     ... off
Angular grids for H and He will be reduced by one unit
Core-polarized basis detected: some atoms will have their core
                               angular grid increased.
Steep s-basis detected: some atoms will have their radial
                        grid points doubled.

Total number of grid points                  ...    58020
Total number of batches                      ...      908
Average number of points per batch           ...       63
Average number of grid points per atom       ...    19340
Initializing property integral containers    ... done (  0.0 sec)

SHARK setup successfully completed in   1.2 seconds

Maximum memory used throughout the entire STARTUP-calculation: 27.4 MB
-------------------------------------------------------------------------------
                                 ORCA GUESS
                   Start orbitals & Density for SCF / CASSCF
-------------------------------------------------------------------------------

------------
SCF SETTINGS
------------
Hamiltonian:
 Ab initio Hamiltonian  Method          .... Hartree-Fock(GTOs)


General Settings:
 Integral files         IntName         .... AR3LD_3.2_4.4_4.4
 Hartree-Fock type      HFTyp           .... RHF
 Total Charge           Charge          ....    0
 Multiplicity           Mult            ....    1
 Number of Electrons    NEL             ....   54
 Basis Dimension        Dim             ....   81
 Nuclear Repulsion      ENuc            ....    131.5125630173 Eh

Convergence Acceleration:
 AO-DIIS                CNVDIIS         .... on
   Start iteration      DIISMaxIt       ....    12
   Startup error        DIISStart       ....  0.200000
   # of expansion vecs  DIISMaxEq       ....     5
   Bias factor          DIISBfac        ....   1.050
   Max. coefficient     DIISMaxC        ....  10.000
 MO-DIIS                CNVKDIIS        .... off
 Trust-Rad. Augm. Hess. CNVTRAH         .... auto
   Auto Start mean grad. ratio tolernc. ....  1.125000
   Auto Start start iteration           ....    50
   Auto Start num. interpolation iter.  ....    10
   Max. Number of Micro iterations      ....    24
   Max. Number of Macro iterations      .... Maxiter - #DIIS iter
   Number of Davidson start vectors     ....     2
   Converg. threshold    (grad. norm)   ....   2.000e-06
   Grad. Scal. Fac. for Micro threshold ....   0.100
   Minimum threshold for Micro iter.    ....   1.000e-02
   NR start threshold (gradient norm)   ....   1.000e-04
   Initial trust radius                 ....   0.400
   Minimum AH scaling param. (alpha)    ....   1.000
   Maximum AH scaling param. (alpha)    .... 1000.000
   Quad. conv. algorithm                .... NR
   White noise on init. David. guess    .... on
   Maximum white noise                  ....   0.010
   Pseudo random numbers                .... off
   Inactive MOs                         .... canonical
   Orbital update algorithm             .... Taylor
   Preconditioner                       .... Diag
   Full preconditioner red. dimension   ....   250
 SOSCF                  CNVSOSCF        .... on
   Start iteration      SOSCFMaxIt      ....   150
   Startup grad/error   SOSCFStart      ....  0.003300
   Hessian update       SOSCFHessUp     .... L-BFGS
 Level Shifting         CNVShift        .... on
   Level shift para.    LevelShift      ....    0.2500
   Turn off err/grad.   ShiftErr        ....    0.0010
 Zerner damping         CNVZerner       .... off
 Static damping         CNVDamp         .... on
   Fraction old density DampFac         ....    0.7000
   Max. Damping (<1)    DampMax         ....    0.9800
   Min. Damping (>=0)   DampMin         ....    0.0000
   Turn off err/grad.   DampErr         ....    0.1000

SCF Procedure:
 Maximum # iterations   MaxIter         ....   125
 SCF integral mode      SCFMode         .... Direct
   Integral package                     .... SHARK and LIBINT hybrid scheme
 Reset frequency        DirectResetFreq ....    20
 Integral Threshold     Thresh          ....  1.000e-12 Eh
 Primitive CutOff       TCut            ....  1.000e-14 Eh

Convergence Tolerance:
 Convergence Check Mode ConvCheckMode   .... Total+1el-Energy
 Convergence forced     ConvForced      .... 1
 Energy Change          TolE            ....  1.000e-09 Eh
 1-El. energy change                    ....  1.000e-06 Eh
 Orbital Gradient       TolG            ....  2.000e-06
 Orbital Rotation angle TolX            ....  2.000e-06
 DIIS Error             TolErr          ....  1.000e-08

------------------------------
INITIAL GUESS: MODEL POTENTIAL
------------------------------
Loading Hartree-Fock densities                     ... done
Calculating cut-offs                               ... done
Initializing the effective Hamiltonian             ... done
Setting up the integral package (SHARK)            ... done
Starting the Coulomb interaction                   ... done (   0.0 sec)
Making the grid                                    ... done (   0.0 sec)
Mapping shells                                     ... done
Starting the XC term evaluation                    ... done (   0.0 sec)
Transforming the Hamiltonian                       ... done (   0.0 sec)
Diagonalizing the Hamiltonian                      ... done (   0.0 sec)
Back transforming the eigenvectors                 ... done (   0.0 sec)
Now organizing SCF variables                       ... done
                      ------------------
                      INITIAL GUESS DONE (   0.1 sec)
                      ------------------
             **** ENERGY FILE WAS UPDATED (AR3LD_3.2_4.4_4.4.en.tmp) ****
Finished Guess after   0.1 sec
Maximum memory used throughout the entire GUESS-calculation: 6.6 MB

-------------------------------------------------------------------------------------------
                                      ORCA LEAN-SCF
                              memory conserving SCF solver
-------------------------------------------------------------------------------------------

----------------------------------------D-I-I-S--------------------------------------------
Iteration    Energy (Eh)           Delta-E    RMSDP     MaxDP     DIISErr   Damp  Time(sec)
-------------------------------------------------------------------------------------------
               ***  Starting incremental Fock matrix formation  ***
    1    -1580.3818737971892006     0.00e+00  1.05e-03  1.75e-02  9.29e-02  0.700   0.4
    2    -1580.3869858462974207    -5.11e-03  8.17e-04  1.27e-02  6.66e-02  0.700   0.4
                               ***Turning on AO-DIIS***
    3    -1580.3906950898929153    -3.71e-03  6.49e-04  9.31e-03  4.74e-02  0.700   0.4
    4    -1580.3933591590989636    -2.66e-03  1.59e-03  2.19e-02  3.33e-02  0.000   0.3
                              *** Initializing SOSCF ***
---------------------------------------S-O-S-C-F--------------------------------------
Iteration    Energy (Eh)           Delta-E    RMSDP     MaxDP     MaxGrad    Time(sec)
--------------------------------------------------------------------------------------
    5    -1580.3998478341850387    -6.49e-03  8.20e-05  9.83e-04  1.05e-03     0.3
               *** Restarting incremental Fock matrix formation ***
    6    -1580.3998561326598065    -8.30e-06  3.99e-05  5.38e-04  2.51e-04     0.4
    7    -1580.3998576389740265    -1.51e-06  1.46e-05  1.74e-04  5.98e-05     0.2
    8    -1580.3998577344746082    -9.55e-08  7.93e-07  1.46e-05  8.51e-06     0.2
    9    -1580.3998577349175321    -4.43e-10  1.44e-07  2.20e-06  1.15e-06     0.2
                 **** Energy Check signals convergence ****

               *****************************************************
               *                     SUCCESS                       *
               *           SCF CONVERGED AFTER   9 CYCLES          *
               *****************************************************

             **** ENERGY FILE WAS UPDATED (AR3LD_3.2_4.4_4.4.en.tmp) ****

----------------
TOTAL SCF ENERGY
----------------

Total Energy       :      -1580.39985773491753 Eh          -43004.86645 eV

Components:
Nuclear Repulsion  :        131.51256301728409 Eh            3578.63877 eV
Electronic Energy  :      -1711.91242075220157 Eh          -46583.50523 eV
One Electron Energy:      -2447.64512483659837 Eh          -66603.80992 eV
Two Electron Energy:        735.73270408439680 Eh           20020.30469 eV

Virial components:
Potential Energy   :      -3160.83899227775237 Eh          -86010.80168 eV
Kinetic Energy     :       1580.43913454283461 Eh           43005.93523 eV
Virial Ratio       :          1.99997514816796

---------------
SCF CONVERGENCE
---------------

  Last Energy change         ...    4.4292e-10  Tolerance :   1.0000e-09
  Last MAX-Density change    ...    2.2015e-06  Tolerance :   1.0000e-08
  Last RMS-Density change    ...    1.4383e-07  Tolerance :   1.0000e-09
  Last DIIS Error            ...    1.0498e-03  Tolerance :   1.0000e-08
  Last Orbital Gradient      ...    1.1467e-06  Tolerance :   2.0000e-06
  Last Orbital Rotation      ...    1.2409e-06  Tolerance :   2.0000e-06


----------------
ORBITAL ENERGIES
----------------

  NO   OCC          E(Eh)            E(eV) 
   0   2.0000    -118.610623     -3227.5591 
   1   2.0000    -118.608885     -3227.5118 
   2   2.0000    -118.608884     -3227.5118 
   3   2.0000     -12.322782      -335.3199 
   4   2.0000     -12.321258      -335.2785 
   5   2.0000     -12.321246      -335.2781 
   6   2.0000      -9.571367      -260.4501 
   7   2.0000      -9.571366      -260.4501 
   8   2.0000      -9.571366      -260.4501 
   9   2.0000      -9.569841      -260.4086 
  10   2.0000      -9.569839      -260.4085 
  11   2.0000      -9.569832      -260.4084 
  12   2.0000      -9.569831      -260.4084 
  13   2.0000      -9.569831      -260.4083 
  14   2.0000      -9.569830      -260.4083 
  15   2.0000      -1.281709       -34.8771 
  16   2.0000      -1.278875       -34.8000 
  17   2.0000      -1.275197       -34.6999 
  18   2.0000      -0.612920       -16.6784 
  19   2.0000      -0.596827       -16.2405 
  20   2.0000      -0.595163       -16.1952 
  21   2.0000      -0.592597       -16.1254 
  22   2.0000      -0.592196       -16.1145 
  23   2.0000      -0.590538       -16.0693 
  24   2.0000      -0.588032       -16.0012 
  25   2.0000      -0.587709       -15.9924 
  26   2.0000      -0.571316       -15.5463 
  27   0.0000       0.118490         3.2243 
  28   0.0000       0.129525         3.5246 
  29   0.0000       0.130034         3.5384 
  30   0.0000       0.130365         3.5474 
  31   0.0000       0.158446         4.3115 
  32   0.0000       0.168536         4.5861 
  33   0.0000       0.168746         4.5918 
  34   0.0000       0.176612         4.8059 
  35   0.0000       0.187168         5.0931 
  36   0.0000       0.202326         5.5056 
  37   0.0000       0.271994         7.4013 
*Only the first 10 virtual orbitals were printed.

                    ********************************
                    * MULLIKEN POPULATION ANALYSIS *
                    ********************************

-------------------------
MULLIKEN FRAGMENT CHARGES
-------------------------
 Fragment   0 :  -0.000207
 Fragment   1 :   0.000104
 Fragment   2 :   0.000104
Sum of fragment charges:    0.0000000

---------------------------------
MULLIKEN FRAGMENT OVERLAP CHARGES
---------------------------------
                  0          1          2    
      0      17.997669   0.002538   0.002538
      1       0.002538  18.012922  -0.028590
      2       0.002538  -0.028590  18.012922

-----------------------
MULLIKEN ATOMIC CHARGES
-----------------------
   0 Ar:   -0.000207
   1 Ar:    0.000104
   2 Ar:    0.000104
Sum of atomic charges:    0.0000000

--------------------------------
MULLIKEN REDUCED ORBITAL CHARGES
--------------------------------
  0 Ars       :     5.999896  s :     5.999896
      pz      :     4.000002  p :    12.000221
      px      :     4.000208
      py      :     4.000011
      dz2     :     0.000021  d :     0.000091
      dxz     :     0.000002
      dyz     :     0.000001
      dx2y2   :     0.000034
      dxy     :     0.000033

  1 Ars       :     5.997947  s :     5.997947
      pz      :     3.999904  p :    12.001589
      px      :     4.000089
      py      :     4.001596
      dz2     :     0.000037  d :     0.000360
      dxz     :     0.000013
      dyz     :     0.000081
      dx2y2   :     0.000130
      dxy     :     0.000099

  2 Ars       :     5.997947  s :     5.997947
      pz      :     3.999904  p :    12.001589
      px      :     4.000205
      py      :     4.001480
      dz2     :     0.000037  d :     0.000360
      dxz     :     0.000013
      dyz     :     0.000081
      dx2y2   :     0.000100
      dxy     :     0.000129



                     *******************************
                     * LOEWDIN POPULATION ANALYSIS *
                     *******************************

------------------------
LOEWDIN FRAGMENT CHARGES
------------------------
 Fragment   0 :   0.000683
 Fragment   1 :  -0.000342
 Fragment   2 :  -0.000342

----------------------------
LOEWDIN FRAGMENT BOND ORDERS
----------------------------
                  0          1          2    
      0      17.999317   0.011561   0.011561
      1       0.011561  18.000342   0.135377
      2       0.011561   0.135377  18.000342

----------------------
LOEWDIN ATOMIC CHARGES
----------------------
   0 Ar:    0.000683
   1 Ar:   -0.000342
   2 Ar:   -0.000342

-------------------------------
LOEWDIN REDUCED ORBITAL CHARGES
-------------------------------
  0 Ars       :     5.998370  s :     5.998370
      pz      :     3.999982  p :    12.000893
      px      :     4.000669
      py      :     4.000242
      dz2     :     0.000011  d :     0.000054
      dxz     :     0.000001
      dyz     :     0.000000
      dx2y2   :     0.000021
      dxy     :     0.000021

  1 Ars       :     5.985970  s :     5.985970
      pz      :     3.999806  p :    12.009455
      px      :     4.002102
      py      :     4.007547
      dz2     :     0.001144  d :     0.004916
      dxz     :     0.000028
      dyz     :     0.000174
      dx2y2   :     0.001918
      dxy     :     0.001652

  2 Ars       :     5.985970  s :     5.985970
      pz      :     3.999806  p :    12.009455
      px      :     4.001133
      py      :     4.008516
      dz2     :     0.001144  d :     0.004916
      dxz     :     0.000027
      dyz     :     0.000175
      dx2y2   :     0.001912
      dxy     :     0.001658



                      *****************************
                      * MAYER POPULATION ANALYSIS *
                      *****************************

  NA   - Mulliken gross atomic population
  ZA   - Total nuclear charge
  QA   - Mulliken gross atomic charge
  VA   - Mayer's total valence
  BVA  - Mayer's bonded valence
  FA   - Mayer's free valence

  ATOM       NA         ZA         QA         VA         BVA        FA
  0 Ar    18.0002    18.0000    -0.0002     0.0058     0.0058    -0.0000
  1 Ar    17.9999    18.0000     0.0001    -0.0021    -0.0021     0.0000
  2 Ar    17.9999    18.0000     0.0001    -0.0021    -0.0021     0.0000

  Mayer bond orders larger than 0.100000
  => no bond orders to print

-------
TIMINGS
-------

Total SCF time: 0 days 0 hours 0 min 3 sec 

Total time                  ....       3.031 sec
Sum of individual times     ....       3.022 sec  ( 99.7%)

SCF preparation             ....       0.030 sec  (  1.0%)
Fock matrix formation       ....       2.969 sec  ( 98.0%)
  Startup                   ....       0.001 sec  (  0.0% of F)
  Coulomb+Exchange Fock     ....       2.965 sec  ( 99.9% of F)
Diagonalization             ....       0.000 sec  (  0.0%)
Density matrix formation    ....       0.003 sec  (  0.1%)
Total Energy calculation    ....       0.001 sec  (  0.0%)
Population analysis         ....       0.002 sec  (  0.1%)
Orbital Transformation      ....       0.002 sec  (  0.1%)
Orbital Orthonormalization  ....       0.000 sec  (  0.0%)
DIIS solution               ....       0.008 sec  (  0.3%)
SOSCF solution              ....       0.005 sec  (  0.2%)
Finished LeanSCF after   3.0 sec

Maximum memory used throughout the entire LEANSCF-calculation: 8.6 MB

------------------------------------------------------------------------------
                         ORCA PROPERTY INTEGRAL CALCULATIONS
------------------------------------------------------------------------------

GBWName                                   ... AR3LD_3.2_4.4_4.4.gbw
Number of atoms                           ...      3
Number of basis functions                 ...    150
Max core memory                           ...   1024 MB

Dipole integrals                          ... YES
Quadrupole integrals                      ...  NO
Linear momentum integrals                 ... YES
Angular momentum integrals                ... YES
Higher moments length integrals           ...  NO
Higher moments velocity integrals         ...  NO
Kinetic energy integrals                  ...  NO
GIAO right hand sides                     ...  NO
GIAO dipole derivative integrals          ...  NO
SOC integrals                             ...  NO
EPR diamagnetic integrals (GIAO)          ...  NO
EPR gauge integrals                       ...  NO
Field gradient integrals                  ...  NO (   0 nuclei)
Spin-dipole/Fermi contact integrals       ...  NO (   0 nuclei)
Contact density integrals                 ...  NO (   0 nuclei)
Nucleus-orbit integrals                   ...  NO (   0 nuclei)
Geometric perturbations                   ...  NO (   3 nuclei)

Choice of electric origin   ... Center of mass
Position of electric origin ... (  4.8102,  1.8777,  0.0000) 
Choice of magnetic origin   ... GIAO
Position of magnetic origin ... (  0.0000,  0.0000,  0.0000) 

Calculating integrals                     ... Electric Dipole (Length)     done (  0.0 sec)
Calculating integrals                     ... Linear Momentum              done (  0.0 sec)
Calculating integrals                     ... Angular Momentum  (ElOri)    done (  0.0 sec)

Property integrals calculated in   0.0 sec

Maximum memory used throughout the entire PROPINT-calculation: 6.7 MB


--------------------------------------------------------------------------------
                             ORCA-MATRIX DRIVEN CI
--------------------------------------------------------------------------------


Wavefunction type
-----------------
Correlation treatment                      ...      CCSD     
Single excitations                         ... ON
Orbital optimization                       ... OFF
Calculation of Z vector                    ... OFF
Calculation of Brueckner orbitals          ... OFF
Perturbative triple excitations            ... OFF
Calculation of F12 correction              ... OFF
Frozen core treatment                      ... chemical core (30 el)
Reference Wavefunction                     ... RHF
  Internal Orbitals:    15 ...   26 ( 12 MO's/ 24 electrons)
  Virtual  Orbitals:    27 ...   80 ( 54 MO's              )
Number of AO's                             ...     81
Number of electrons                        ...     54
Number of correlated electrons             ...     24

Algorithmic settings
--------------------
Integral transformation                    ... All integrals via the RI transformation
K(C) Formation                             ... RI-DLPNO
   PNO-Integral Storage                    ... ON DISK
   PNO occupation number cut-off           ... 3.330e-07
   Singles PNO occupation number cut-off   ... 9.990e-09
   PNO Mulliken prescreening cut-off       ... 1.000e-03
   Domain cut-off (Mulliken population)    ... 1.000e-03
   PNO Normalization                       ...    1
Maximum number of iterations               ...        50
Convergence tolerance (max. residuum)      ... 1.000e-06
Level shift for amplitude update           ... 2.000e-01
Maximum number of DIIS vectors             ...         7
DIIS turned on at iteration                ...         0
Damping before turning on DIIS             ...     0.500
Damping after turning on DIIS              ...     0.000
Pair specific amplitude update             ... OFF
Natural orbital iterations                 ... OFF
Perturbative natural orbital generation    ... OFF
Printlevel                                 ... 2

Singles Fock matrix elements calculated using PNOs.

Memory handling:
----------------
Maximum memory for working arrays          ...    512 MB
Data storage in matrix containers          ... UNCOMPRESSED
Data type for integral storage             ... DOUBLE
In-Core Storage of quantities:
   Amplitudes+Sigma Vector      ... NO
   J+K operators                ... NO
   DIIS vectors                 ... NO
   3-external integrals         ... NO
   4-external integrals         ... NO

Localization treatment:
-----------------------
Localization option                        ...    2
Localization threshhold                    ... -1.0e+00
Using relative localization threshhold     ... 1.0e-08
Neglect threshold for strong pairs         ... 1.000e-05 Eh
Prescreening threshold for very weak pairs ... 1.000e-07 Eh
Using randomized seed for localization     ... on

Initializing the integral package          ... done
Localizing the valence orbitals
Localizing the valence orbitals
Localization sum:   239.905278314 
------------------------------------------------------------------------------
                           ORCA ORBITAL LOCALIZATION
------------------------------------------------------------------------------

Input orbitals are from                  ... AR3LD_3.2_4.4_4.4.proc0.gbw
Output orbitals are to                   ... AR3LD_3.2_4.4_4.4.proc0.loc
Max. number of iterations                ... 128
Localizations seeded randomly            ... on
Convergence tolerance                    ... 2.000e-07
Using relative localization threshhold   ... 1.000e-08
Threshold for strong local MOs           ... 9.500e-01
Threshold for bond MOs                   ... 8.500e-01
Operator                                 ... 0
Orbital range for localization           ... 15 to 26
Localization criterion                   ... FOSTER-BOYS
Doing the dipole integrals     ... o.k.
Entering Jacobi type localization:
Using Cholesky decomposition as initial guess.
Initial value of the localization sum :   233.126100
ITERATION   0 : L=  239.8838494037 DL=  6.76e+00 (MAX-T)=  45.000 
ITERATION   1 : L=  239.8888129908 DL=  4.96e-03 (MAX-T)=   2.056 
ITERATION   2 : L=  239.8889685201 DL=  1.56e-04 (MAX-T)=   0.271 
ITERATION   3 : L=  239.8890999624 DL=  1.31e-04 (MAX-T)=   0.212 
ITERATION   4 : L=  239.8893011269 DL=  2.01e-04 (MAX-T)=   0.356 
ITERATION   5 : L=  239.8894390388 DL=  1.38e-04 (MAX-T)=   0.268 
ITERATION   6 : L=  239.8896362227 DL=  1.97e-04 (MAX-T)=   0.275 
ITERATION   7 : L=  239.8898107343 DL=  1.75e-04 (MAX-T)=   0.343 
ITERATION   8 : L=  239.8900039077 DL=  1.93e-04 (MAX-T)=   0.337 
ITERATION   9 : L=  239.8901634726 DL=  1.60e-04 (MAX-T)=   0.370 
ITERATION  10 : L=  239.8903628170 DL=  1.99e-04 (MAX-T)=   0.343 
ITERATION  11 : L=  239.8905258901 DL=  1.63e-04 (MAX-T)=   0.363 
ITERATION  12 : L=  239.8908127283 DL=  2.87e-04 (MAX-T)=   0.324 
ITERATION  13 : L=  239.8909900870 DL=  1.77e-04 (MAX-T)=   0.367 
ITERATION  14 : L=  239.8912800885 DL=  2.90e-04 (MAX-T)=   0.356 
ITERATION  15 : L=  239.8915092342 DL=  2.29e-04 (MAX-T)=   0.347 
ITERATION  16 : L=  239.8918275942 DL=  3.18e-04 (MAX-T)=   0.326 
ITERATION  17 : L=  239.8920575922 DL=  2.30e-04 (MAX-T)=   0.483 
ITERATION  18 : L=  239.8923458307 DL=  2.88e-04 (MAX-T)=   0.428 
ITERATION  19 : L=  239.8925310381 DL=  1.85e-04 (MAX-T)=   0.438 
ITERATION  20 : L=  239.8926899096 DL=  1.59e-04 (MAX-T)=   0.446 
ITERATION  21 : L=  239.8929543620 DL=  2.64e-04 (MAX-T)=   0.347 
ITERATION  22 : L=  239.8932357009 DL=  2.81e-04 (MAX-T)=   0.386 
ITERATION  23 : L=  239.8934276571 DL=  1.92e-04 (MAX-T)=   0.387 
ITERATION  24 : L=  239.8937257624 DL=  2.98e-04 (MAX-T)=   0.409 
ITERATION  25 : L=  239.8938845627 DL=  1.59e-04 (MAX-T)=   0.392 
ITERATION  26 : L=  239.8941354556 DL=  2.51e-04 (MAX-T)=   0.388 
ITERATION  27 : L=  239.8944377515 DL=  3.02e-04 (MAX-T)=   0.409 
ITERATION  28 : L=  239.8946794790 DL=  2.42e-04 (MAX-T)=   0.440 
ITERATION  29 : L=  239.8948645609 DL=  1.85e-04 (MAX-T)=   0.477 
ITERATION  30 : L=  239.8951350004 DL=  2.70e-04 (MAX-T)=   0.423 
ITERATION  31 : L=  239.8954160588 DL=  2.81e-04 (MAX-T)=   0.452 
ITERATION  32 : L=  239.8957076072 DL=  2.92e-04 (MAX-T)=   0.401 
ITERATION  33 : L=  239.8958510159 DL=  1.43e-04 (MAX-T)=   0.327 
ITERATION  34 : L=  239.8961367104 DL=  2.86e-04 (MAX-T)=   0.438 
ITERATION  35 : L=  239.8964214501 DL=  2.85e-04 (MAX-T)=   0.472 
ITERATION  36 : L=  239.8967401559 DL=  3.19e-04 (MAX-T)=   0.432 
ITERATION  37 : L=  239.8970092094 DL=  2.69e-04 (MAX-T)=   0.350 
ITERATION  38 : L=  239.8972519375 DL=  2.43e-04 (MAX-T)=   0.405 
ITERATION  39 : L=  239.8974466873 DL=  1.95e-04 (MAX-T)=   0.471 
ITERATION  40 : L=  239.8977594534 DL=  3.13e-04 (MAX-T)=   0.384 
ITERATION  41 : L=  239.8981086161 DL=  3.49e-04 (MAX-T)=   0.372 
ITERATION  42 : L=  239.8984279703 DL=  3.19e-04 (MAX-T)=   0.448 
ITERATION  43 : L=  239.8987442976 DL=  3.16e-04 (MAX-T)=   0.410 
ITERATION  44 : L=  239.8989642062 DL=  2.20e-04 (MAX-T)=   0.411 
ITERATION  45 : L=  239.8992155566 DL=  2.51e-04 (MAX-T)=   0.332 
ITERATION  46 : L=  239.8994750076 DL=  2.59e-04 (MAX-T)=   0.385 
ITERATION  47 : L=  239.8998487074 DL=  3.74e-04 (MAX-T)=   0.408 
ITERATION  48 : L=  239.9001109918 DL=  2.62e-04 (MAX-T)=   0.361 
ITERATION  49 : L=  239.9004170258 DL=  3.06e-04 (MAX-T)=   0.403 
ITERATION  50 : L=  239.9006097747 DL=  1.93e-04 (MAX-T)=   0.288 
ITERATION  51 : L=  239.9008735245 DL=  2.64e-04 (MAX-T)=   0.403 
ITERATION  52 : L=  239.9010963884 DL=  2.23e-04 (MAX-T)=   0.410 
ITERATION  53 : L=  239.9014062561 DL=  3.10e-04 (MAX-T)=   0.365 
ITERATION  54 : L=  239.9016052301 DL=  1.99e-04 (MAX-T)=   0.432 
ITERATION  55 : L=  239.9018449340 DL=  2.40e-04 (MAX-T)=   0.366 
ITERATION  56 : L=  239.9020953029 DL=  2.50e-04 (MAX-T)=   0.433 
ITERATION  57 : L=  239.9022580117 DL=  1.63e-04 (MAX-T)=   0.308 
ITERATION  58 : L=  239.9024314498 DL=  1.73e-04 (MAX-T)=   0.328 
ITERATION  59 : L=  239.9026239557 DL=  1.93e-04 (MAX-T)=   0.371 
ITERATION  60 : L=  239.9028200184 DL=  1.96e-04 (MAX-T)=   0.337 
ITERATION  61 : L=  239.9029969509 DL=  1.77e-04 (MAX-T)=   0.294 
ITERATION  62 : L=  239.9031156062 DL=  1.19e-04 (MAX-T)=   0.293 
ITERATION  63 : L=  239.9032737406 DL=  1.58e-04 (MAX-T)=   0.325 
ITERATION  64 : L=  239.9033851526 DL=  1.11e-04 (MAX-T)=   0.306 
ITERATION  65 : L=  239.9035572019 DL=  1.72e-04 (MAX-T)=   0.281 
ITERATION  66 : L=  239.9036984765 DL=  1.41e-04 (MAX-T)=   0.324 
ITERATION  67 : L=  239.9037726369 DL=  7.42e-05 (MAX-T)=   0.225 
ITERATION  68 : L=  239.9039118963 DL=  1.39e-04 (MAX-T)=   0.262 
ITERATION  69 : L=  239.9040175596 DL=  1.06e-04 (MAX-T)=   0.241 
ITERATION  70 : L=  239.9040775209 DL=  6.00e-05 (MAX-T)=   0.284 
ITERATION  71 : L=  239.9041659328 DL=  8.84e-05 (MAX-T)=   0.277 
ITERATION  72 : L=  239.9042765431 DL=  1.11e-04 (MAX-T)=   0.259 
ITERATION  73 : L=  239.9043192787 DL=  4.27e-05 (MAX-T)=   0.213 
ITERATION  74 : L=  239.9043819851 DL=  6.27e-05 (MAX-T)=   0.220 
ITERATION  75 : L=  239.9044538398 DL=  7.19e-05 (MAX-T)=   0.218 
ITERATION  76 : L=  239.9045286623 DL=  7.48e-05 (MAX-T)=   0.202 
ITERATION  77 : L=  239.9045940231 DL=  6.54e-05 (MAX-T)=   0.199 
ITERATION  78 : L=  239.9046438615 DL=  4.98e-05 (MAX-T)=   0.188 
ITERATION  79 : L=  239.9047039294 DL=  6.01e-05 (MAX-T)=   0.213 
ITERATION  80 : L=  239.9047560574 DL=  5.21e-05 (MAX-T)=   0.173 
ITERATION  81 : L=  239.9047833058 DL=  2.72e-05 (MAX-T)=   0.190 
ITERATION  82 : L=  239.9048229552 DL=  3.96e-05 (MAX-T)=   0.171 
ITERATION  83 : L=  239.9048711417 DL=  4.82e-05 (MAX-T)=   0.153 
ITERATION  84 : L=  239.9049047448 DL=  3.36e-05 (MAX-T)=   0.139 
ITERATION  85 : L=  239.9049300774 DL=  2.53e-05 (MAX-T)=   0.139 
ITERATION  86 : L=  239.9049686447 DL=  3.86e-05 (MAX-T)=   0.141 
ITERATION  87 : L=  239.9049975542 DL=  2.89e-05 (MAX-T)=   0.143 
ITERATION  88 : L=  239.9050218898 DL=  2.43e-05 (MAX-T)=   0.134 
ITERATION  89 : L=  239.9050445713 DL=  2.27e-05 (MAX-T)=   0.128 
ITERATION  90 : L=  239.9050629417 DL=  1.84e-05 (MAX-T)=   0.110 
ITERATION  91 : L=  239.9050847318 DL=  2.18e-05 (MAX-T)=   0.102 
ITERATION  92 : L=  239.9051035953 DL=  1.89e-05 (MAX-T)=   0.090 
ITERATION  93 : L=  239.9051182181 DL=  1.46e-05 (MAX-T)=   0.103 
ITERATION  94 : L=  239.9051301564 DL=  1.19e-05 (MAX-T)=   0.080 
ITERATION  95 : L=  239.9051474733 DL=  1.73e-05 (MAX-T)=   0.088 
ITERATION  96 : L=  239.9051611671 DL=  1.37e-05 (MAX-T)=   0.092 
ITERATION  97 : L=  239.9051707804 DL=  9.61e-06 (MAX-T)=   0.079 
ITERATION  98 : L=  239.9051843417 DL=  1.36e-05 (MAX-T)=   0.082 
ITERATION  99 : L=  239.9051938904 DL=  9.55e-06 (MAX-T)=   0.070 
ITERATION 100 : L=  239.9052035850 DL=  9.69e-06 (MAX-T)=   0.068 
ITERATION 101 : L=  239.9052146659 DL=  1.11e-05 (MAX-T)=   0.067 
ITERATION 102 : L=  239.9052222922 DL=  7.63e-06 (MAX-T)=   0.065 
ITERATION 103 : L=  239.9052289240 DL=  6.63e-06 (MAX-T)=   0.058 
ITERATION 104 : L=  239.9052326777 DL=  3.75e-06 (MAX-T)=   0.064 
ITERATION 105 : L=  239.9052409783 DL=  8.30e-06 (MAX-T)=   0.064 
ITERATION 106 : L=  239.9052471569 DL=  6.18e-06 (MAX-T)=   0.046 
ITERATION 107 : L=  239.9052514220 DL=  4.27e-06 (MAX-T)=   0.058 
ITERATION 108 : L=  239.9052557023 DL=  4.28e-06 (MAX-T)=   0.057 
ITERATION 109 : L=  239.9052607160 DL=  5.01e-06 (MAX-T)=   0.054 
ITERATION 110 : L=  239.9052648791 DL=  4.16e-06 (MAX-T)=   0.045 
ITERATION 111 : L=  239.9052689165 DL=  4.04e-06 (MAX-T)=   0.042 
ITERATION 112 : L=  239.9052722480 DL=  3.33e-06 (MAX-T)=   0.046 
ITERATION 113 : L=  239.9052761143 DL=  3.87e-06 (MAX-T)=   0.041 
ITERATION 114 : L=  239.9052783137 DL=  2.20e-06 (MAX-T)=   0.038 
LOCALIZATION SUM CONVERGED


--------------------------------------------------------------------------------
                    LOCALIZED MOLECULAR ORBITAL COMPOSITIONS
--------------------------------------------------------------------------------

The Mulliken populations for each LMO on each atom are computed
The LMO`s will be ordered according to atom index and type
  (A) Strongly localized MO`s have populations of >=0.950 on one atom
  (B) Two center bond orbitals have populations of >=0.850 on two atoms
  (C) Other MO`s are considered to be `delocalized`

FOUND  -  12 strongly local MO`s
       -   0 two center bond MO`s
       -   0 significantly delocalized MO`s

Rather strongly localized orbitals:
MO  26:   2Ar -   1.000270
MO  25:   2Ar -   1.000046
MO  24:   2Ar -   1.000192
MO  23:   2Ar -   1.000905
MO  22:   1Ar -   1.000220
MO  21:   1Ar -   1.000046
MO  20:   1Ar -   1.000241
MO  19:   1Ar -   1.000907
MO  18:   0Ar -   0.999522
MO  17:   0Ar -   0.999876
MO  16:   0Ar -   0.999972
MO  15:   0Ar -   0.999972
Localized MO's were stored in: AR3LD_3.2_4.4_4.4.proc0.loc

Localizing the core orbitals
Localization sum:   291.855230834 
------------------------------------------------------------------------------
                           ORCA ORBITAL LOCALIZATION
------------------------------------------------------------------------------

Input orbitals are from                  ... AR3LD_3.2_4.4_4.4.proc0.loc
Output orbitals are to                   ... AR3LD_3.2_4.4_4.4.proc0.loc
Max. number of iterations                ... 128
Localizations seeded randomly            ... on
Convergence tolerance                    ... 2.000e-07
Using relative localization threshhold   ... 1.000e-08
Threshold for strong local MOs           ... 9.500e-01
Threshold for bond MOs                   ... 8.500e-01
Operator                                 ... 0
Orbital range for localization           ... 0 to 14
Localization criterion                   ... FOSTER-BOYS
Doing the dipole integrals     ... o.k.
Entering Jacobi type localization:
Using Cholesky decomposition as initial guess.
Initial value of the localization sum :   291.398764
ITERATION   0 : L=  291.8543579420 DL=  4.56e-01 (MAX-T)=  45.000 
ITERATION   1 : L=  291.8551865558 DL=  8.29e-04 (MAX-T)=   2.936 
ITERATION   2 : L=  291.8552292356 DL=  4.27e-05 (MAX-T)=   1.160 
ITERATION   3 : L=  291.8552308345 DL=  1.60e-06 (MAX-T)=   0.225 
LOCALIZATION SUM CONVERGED


--------------------------------------------------------------------------------
                    LOCALIZED MOLECULAR ORBITAL COMPOSITIONS
--------------------------------------------------------------------------------

The Mulliken populations for each LMO on each atom are computed
The LMO`s will be ordered according to atom index and type
  (A) Strongly localized MO`s have populations of >=0.950 on one atom
  (B) Two center bond orbitals have populations of >=0.850 on two atoms
  (C) Other MO`s are considered to be `delocalized`

FOUND  -  15 strongly local MO`s
       -   0 two center bond MO`s
       -   0 significantly delocalized MO`s

Rather strongly localized orbitals:
MO  14:   2Ar -   1.000029
MO  13:   2Ar -   1.000013
MO  12:   2Ar -   1.000000
MO  11:   2Ar -   1.000018
MO  10:   2Ar -   1.000018
MO   9:   1Ar -   1.000011
MO   8:   1Ar -   1.000023
MO   7:   1Ar -   1.000022
MO   6:   1Ar -   1.000000
MO   5:   1Ar -   1.000022
MO   4:   0Ar -   1.000004
MO   3:   0Ar -   1.000004
MO   2:   0Ar -   1.000003
MO   1:   0Ar -   1.000000
MO   0:   0Ar -   1.000003
Localized MO's were stored in: AR3LD_3.2_4.4_4.4.proc0.loc

Warning: reference  - re-canonicalizations have been set to INT 1 VIRT 1
Warning: internal orbitals are localized - no re-canonicalization of internal orbitals
Warning: UsePNO is turned on - no re-canonicalization of internal and virtual orbitals
Fock densities were made 
Making Fock matrix and reference energy:

--------------------------
CLOSED-SHELL FOCK OPERATOR
--------------------------

Time needed for Fock operator              ...            0.501 sec
Reference energy                           ...  -1580.399857735

--------------
DLPNO SETTINGS (2015 fully linear scaling implementation)
--------------

TCutMKN:           1.000e-03
TCutPAO:           1.000e-03
TCutPNO:           3.330e-07
TCutPNOSingles:    9.990e-09
TCutEN:            9.700e-01
TCutPAOExt:        1.000e-01
TCutPairs:         1.000e-05
TCutPre:           1.000e-07
TCutOSV:           1.000e-06
TCutDOij:          1.000e-05
TCutDO:            1.000e-02
TCutC:             1.000e-04
TCutCPAO:          1.000e-03
TCutCMO:           1.000e-03
TScaleDOMP2PreScr: 2.000e+00
TScaleMKNMP2PreScr:1.000e+01
TScalePNOMP2PreScr:1.000e+00
PAO overlap thresh 1.000e-08
Using PNOs for Singles Fock computation
Use new domains
Use fully linear algorithm

--------------------------
Mulliken population of the LMOs            ... ok
Performing proximity check                 ... No problems found
Calculating differential overlap integrals ... ok

------------------------
PRESCREENING OF HF PAIRS
------------------------

   .... Finished loop over pairs

                  ============================================
                    30 of   78 PAIRS WERE SKIPPED as HF PAIRS
                  ============================================

Total time spent in skipping HF pairs                 ...     0.000 sec
--------------------------
ELECTRON PAIR PRESCREENING
--------------------------

Dipole-based pair screening          .... used

   TCutDOij = 1.000000e-05
   TCutPre  = 1.000000e-07
   .... Finished loop over pairs
Total time spent in the prescreening                  ...     0.000 sec
sum of pair energies estimated for screened out pairs ...       0.000000000000 Eh
Thresholds for map construction and integral transformation for crude MP2:
   TCutMKN                    ...     1.0e-02
   TCutDO                     ...     2.0e-02
   TCutPairs                  ...     1.0e-05
   TCutPNO_CrudeMP2           ...     3.3e-07
   TCutPNOSingles_CrudeMP2    ...     1.0e-08
--------------------------------
LOCAL RI TRANSFORMATION (IAVPAO)
--------------------------------

Orbital window:      15 to 26
Number of PAOs:      81
Basis functions:     81 (33 shells)
Aux. functions:     276 (84 shells)
Use SHARK:           on
Have SHARK:         yes

Processing maps (0.0 sec)
Average map sizes:
   Aux shells -> MOs              12.0
   Aux shells -> PAOs             81.0
   MOs        -> AO shells        26.6
   PAOs       -> AO shells        33.0

Calculating integrals (0.1 sec, 2.050 MB)
Sorting integrals (0.0 sec, 2.047 MB)
Total time for the integral transformation: 0.1 sec
--------------------------------
INITIAL GUESS AND PNO GENERATION
--------------------------------

Populations of internal orbitals onto Fragments:
  15:      1.000    0.000    0.000  assigned to fragment   1
  16:      1.000    0.000    0.000  assigned to fragment   1
  17:      1.000    0.000    0.000  assigned to fragment   1
  18:      1.000    0.000    0.000  assigned to fragment   1
  19:      0.000    1.001    0.001  assigned to fragment   2
  20:      0.000    1.000    0.000  assigned to fragment   2
  21:      0.000    1.000    0.000  assigned to fragment   2
  22:      0.000    1.000    0.000  assigned to fragment   2
  23:      0.000    0.001    1.001  assigned to fragment   3
  24:      0.000    0.000    1.000  assigned to fragment   3
  25:      0.000    0.000    1.000  assigned to fragment   3
  26:      0.000    0.000    1.000  assigned to fragment   3

Summary assignment:
   4 orbitals assigned to fragment   1
   4 orbitals assigned to fragment   2
   4 orbitals assigned to fragment   3

PNO truncation parameters                   .... 
    PAOOverlapThresh   =        1.000e-08

Pair selection                          .... 
  modified with fragment specific keywords
  Pairs will be selected according to these
  intra(inter)fragment cutoffs
  1 <-> 1
    Intrafragment pairs 1 <-> 1 neglected for CCSD
  1 <-> 2
    TCutPairs          =        1.000e-05
    TCutPNO            =        3.330e-07
    TCutMKN            =        1.000e-02
    TCutDO             =        2.000e-02
    TCutPNOSingles     =        9.990e-09
    TCutMP2Pairs       =        1.000e-06
  1 <-> 3
    TCutPairs          =        1.000e-05
    TCutPNO            =        3.330e-07
    TCutMKN            =        1.000e-02
    TCutDO             =        2.000e-02
    TCutPNOSingles     =        9.990e-09
    TCutMP2Pairs       =        1.000e-06
  2 <-> 2
    Intrafragment pairs 2 <-> 2 neglected for CCSD
  2 <-> 3
    TCutPairs          =        1.000e-05
    TCutPNO            =        3.330e-07
    TCutMKN            =        1.000e-02
    TCutDO             =        2.000e-02
    TCutPNOSingles     =        9.990e-09
    TCutMP2Pairs       =        1.000e-06
  3 <-> 3
    Intrafragment pairs 3 <-> 3 neglected for CCSD

Type of local MP2 treatment                 .... semi-local MP2
Strategy for PNO selection                  .... occupation number selection
Pair density normalization                  .... MP2 norm
Spin component scaling                      .... not used

   .... Finished loop over pairs
Making pair pair interaction lists          ... done

                       ===========================
                         30 OF   60 PAIRS ARE KEPT CCSD PAIRS
                         18 OF   60 PAIRS ARE KEPT MP2 PAIRS
                         12 OF   60 PAIRS ARE SKIPPED
                       ===========================

Total time spent in the initial guess                 ...     0.101 sec
SL-MP2 correlation energy (all non-screened pairs)    ...      -0.002092871468 Eh

Initial PNO correlation energy                        ...      -0.001898211821 Eh
sum of pair energies prescreened and skipped MP2 pairs...       0.000000000000 Eh
sum of pair energies of crude MP2 skipped pairs only  ...       0.000000000000 Eh
sum of MP2 pair energies for pairs that were not kept ...      -0.000144391108 Eh
sum of PNO error estimates for the kept pairs         ...      -0.000050268539 Eh
                                                          --------------------
sum of all corrections                                         -0.000194659646
Initial total correlation energy                               -0.002092871468
Thresholds for map construction and integral transformation for fine MP2 and CCSD(T) calculation:
   TCutMKN   ...     1.0e-03
   TCutDO    ...     1.0e-02
   TCutPairs ...     1.0e-05
   TCutCMO   ...     1.0e-03
   TCutCPAO  ...     1.0e-03

--------------------------------
LOCAL RI TRANSFORMATION (IAVPAO)
--------------------------------

Orbital window:      15 to 26
Number of PAOs:      81
Basis functions:     81 (33 shells)
Aux. functions:     276 (84 shells)
Use SHARK:           on
Have SHARK:         yes

Processing maps (0.0 sec)
Average map sizes:
   Aux shells -> MOs              12.0
   Aux shells -> PAOs             81.0
   MOs        -> AO shells        26.6
   PAOs       -> AO shells        33.0

Calculating integrals (0.1 sec, 2.050 MB)
Sorting integrals (0.0 sec, 2.047 MB)
Total time for the integral transformation: 0.1 sec
--------------------------------
INITIAL GUESS AND PNO GENERATION
--------------------------------

Populations of internal orbitals onto Fragments:
  15:      1.000    0.000    0.000  assigned to fragment   1
  16:      1.000    0.000    0.000  assigned to fragment   1
  17:      1.000    0.000    0.000  assigned to fragment   1
  18:      1.000    0.000    0.000  assigned to fragment   1
  19:      0.000    1.001    0.001  assigned to fragment   2
  20:      0.000    1.000    0.000  assigned to fragment   2
  21:      0.000    1.000    0.000  assigned to fragment   2
  22:      0.000    1.000    0.000  assigned to fragment   2
  23:      0.000    0.001    1.001  assigned to fragment   3
  24:      0.000    0.000    1.000  assigned to fragment   3
  25:      0.000    0.000    1.000  assigned to fragment   3
  26:      0.000    0.000    1.000  assigned to fragment   3

Summary assignment:
   4 orbitals assigned to fragment   1
   4 orbitals assigned to fragment   2
   4 orbitals assigned to fragment   3

PNO truncation parameters                   .... 
    PAOOverlapThresh   =        1.000e-08

Pair selection                          .... 
  modified with fragment specific keywords
  Pairs will be selected according to these
  intra(inter)fragment cutoffs
  1 <-> 1
    Intrafragment pairs 1 <-> 1 neglected for CCSD
  1 <-> 2
    TCutPairs          =        1.000e-05
    TCutPNO            =        3.330e-07
    TCutMKN            =        1.000e-03
    TCutDO             =        1.000e-02
    TCutPNOSingles     =        9.990e-09
    TCutMP2Pairs       =        1.000e-06
  1 <-> 3
    TCutPairs          =        1.000e-05
    TCutPNO            =        3.330e-07
    TCutMKN            =        1.000e-03
    TCutDO             =        1.000e-02
    TCutPNOSingles     =        9.990e-09
    TCutMP2Pairs       =        1.000e-06
  2 <-> 2
    Intrafragment pairs 2 <-> 2 neglected for CCSD
  2 <-> 3
    TCutPairs          =        1.000e-05
    TCutPNO            =        3.330e-07
    TCutMKN            =        1.000e-03
    TCutDO             =        1.000e-02
    TCutPNOSingles     =        9.990e-09
    TCutMP2Pairs       =        1.000e-06
  3 <-> 3
    Intrafragment pairs 3 <-> 3 neglected for CCSD

Type of local MP2 treatment                 .... semi-local MP2
Strategy for PNO selection                  .... occupation number selection
Pair density normalization                  .... MP2 norm
Spin component scaling                      .... not used

   .... Finished loop over pairs

 PNO Occupation Number Statistics: 
  | Av. % of trace(Dij) retained        ...  98.685409110691
  | sigma^2 in % of trace(Dij) retained ...   1.34e-01
  | Av. % of trace(Di) retained         ...  99.999935860695
  | sigma^2 in % of trace(Di) retained  ...   1.01e-09
 Distributions of % trace(Dij) recovered:
  |   [90.0, 99.0) ...    22 ( 73.3 % of all pairs)
  |   [99.0, 99.9) ...     8 ( 26.7 % of all pairs)
 Distributions of % trace(Di) recovered :
  |       >= 99.9  ...    12 (100.0 % of all I-pairs )

Making pair pair interaction lists          ... done

                       ===========================
                         30 OF   60 PAIRS ARE KEPT
                       ===========================

Total time spent in the initial guess                 ...     0.138 sec
SL-MP2 correlation energy (all non-screened pairs)    ...      -0.002092879438 Eh

Initial PNO correlation energy                        ...      -0.001898219253 Eh
sum of pair energies estimated for screened out pairs ...       0.000000000000 Eh
sum of MP2 pair energies for pairs that were not kept ...      -0.000144391108 Eh
sum of PNO error estimates for the kept pairs         ...      -0.000050269078 Eh
                                                          --------------------
sum of all corrections                                         -0.000194660185
Initial total correlation energy                               -0.002092879438
Thresholds for map construction and integral transformation for fine MP2 and CCSD(T) calculation:
   TCutMKN   ...     1.0e-03
   TCutDO    ...     1.0e-02
   TCutPairs ...     1.0e-05
   TCutCMO   ...     1.0e-03
   TCutCPAO  ...     1.0e-03

Time for aux screen maps:            0.000
Time for maps after fine MP2:            0.001
-----------------------------
LOCAL RI TRANSFORMATION (IJV)
-----------------------------

Orbital window:      15 to 26
Basis functions:     81 (33 shells)
Aux. functions:     276 (84 shells)
Use SHARK:           on

Processing maps (0.0 sec)
Average map sizes:
   Aux shells -> MOs(i)           12.0
   Aux shells -> MOs(j)           12.0
   MOs        -> AO shells        26.6

Calculating integrals NOTE: Switching SHARK to General Contraction for MDCI
      If that is not desired please turn off the PGCFlag in the input (%shark PGCFlag 0 end)
(0.4 sec, 0.306 MB)
Sorting integrals (0.0 sec, 0.303 MB)
Total time for the integral transformation: 0.4 sec
--------------------------------
LOCAL RI TRANSFORMATION (VABPAO)
--------------------------------

Number of PAOs:      81
Basis functions:     81 (33 shells)
Aux. functions:     276 (84 shells)
Use SHARK:           on

Processing maps (0.0 sec)
Average map sizes:
   Aux shells -> PAOs             81.0
   PAOs       -> AO shells        33.0

Calculating integrals NOTE: Switching SHARK to General Contraction for MDCI
      If that is not desired please turn off the PGCFlag in the input (%shark PGCFlag 0 end)
(0.4 sec, 13.819 MB)
Finished


-------------------------------------
Pair Pair Term precalculation with     
RI-(ij|mn) and (im|jn) transformation  
ON THE FLY                             
-------------------------------------

   IBatch   1 (of   1)              ... done (    0.164 sec)
Total EXT                           ...           0.164 sec

IAVPA Available = YES
VABPAO Available= YES
IJV Available   = YES
IJK Available   = NO
PNO3i Available = YES
PNO3j Available = YES
PNO4 Available  = YES
---------------------
RI-PNO TRANSFORMATION
---------------------

Total Number of PNOs                   ...   220
Average number of PNOs per pair        ...     7
Maximal number of PNOs per pair        ...    10
   #pairs with  1 -  5 PNOs   :    0
   #pairs with  6 - 10 PNOs   :   30
   #pairs with 11 - 15 PNOs   :    0
   #pairs with 16 - 20 PNOs   :    0
   #pairs with 21 - 25 PNOs   :    0
   #pairs with 26 - 30 PNOs   :    0
   #pairs with 31 - 35 PNOs   :    0
   #pairs with 36 - 40 PNOs   :    0
   #pairs with 41 - 45 PNOs   :    0
   #pairs with 46 - 50 PNOs   :    0

Generation of (ij|ab)[P] integrals            ... on
Generation of (ia|bc)[P],(ja|bc)[P] integrals ... on
Storage of 3 and 4 external integrals         ... on
Generation of ALL (ka|bc)[P] integrals        ... on
Keep RI integrals in memory                   ... off

Ibatch:  1 (of  1)
Starting 2-4 index PNO integral generation ... done

Timings:
Total PNO integral transformation time     ...          0.163 sec
Size of the 3-external file                ...         0 MB
Size of the 4-external file                ...         0 MB
Size of the IKJL file                      ...         0 MB
Size of the all 3-external file            ...         0 MB
Size of the 1-external file                ...         0 MB

Making pair/pair overlap matrices          ... done (    0.026 sec)
Size of the pair overlap file              ... 0 MB
Redoing the guess amplitudes               ... done (    0.000 sec)

-------------------------
FINAL STARTUP INFORMATION
-------------------------

E(0)                                       ...  -1580.399857735
E(SL-MP2)                                  ...     -0.002092879
E(SL-MP2) including corrections            ...     -0.002092879
Initial E(tot)                             ...  -1580.401950614
<T|T>                                      ...      0.000717566
Number of pairs included                   ... 30
Total number of pairs                      ... 78

------------------------------------------------
                  RHF COUPLED CLUSTER ITERATIONS
------------------------------------------------

Number of PNO amplitudes to be optimized   ...         1666
Number of non-PNO amplitudes               ...        87480
Untruncated number of regular amplitudes   ...       227448

Iter       E(tot)           E(Corr)          Delta-E          Residual     Time
  0  -1580.401950403     -0.001898008      0.000194871      0.000583859    0.03
                           *** Turning on DIIS ***
  1  -1580.401855941     -0.001803546      0.000094462      0.000124564    0.03
  2  -1580.401864987     -0.001812592     -0.000009046      0.000031268    0.03
  3  -1580.401865467     -0.001813072     -0.000000480      0.000010820    0.03
  4  -1580.401865670     -0.001813275     -0.000000203      0.000001409    0.03
  5  -1580.401865704     -0.001813309     -0.000000034      0.000000248    0.02
               --- The Coupled-Cluster iterations have converged ---

----------------------
COUPLED CLUSTER ENERGY
----------------------

E(0)                                       ...  -1580.399857735
E(CORR)(strong-pairs)                      ...     -0.001813309
E(CORR)(weak-pairs)                        ...     -0.000194660
E(CORR)(corrected)                         ...     -0.002007969
E(TOT)                                     ...  -1580.401865704
Singles Norm <S|S>**1/2                    ...      0.001360589  
T1 diagnostic                              ...      0.000277729  

------------------
LARGEST AMPLITUDES
------------------
  23-> 27  19-> 27       0.001853
  23-> 27  19-> 30       0.001349
  23-> 30  19-> 27       0.001349
  25-> 28  21-> 28       0.001309
  26-> 28  22-> 28       0.001257
  24-> 28  20-> 28       0.001207
  26-> 27  19-> 27       0.001168
  25-> 27  19-> 27       0.001167
  23-> 27  20-> 27       0.001158
  23-> 27  21-> 27       0.001157
  23-> 27  22-> 27       0.001131
  24-> 27  19-> 27       0.001103
  25-> 32  21-> 28       0.001098
  25-> 28  21-> 32       0.001087
  26-> 32  22-> 28       0.001052
  26-> 28  22-> 32       0.001050


 ===========================================================
         LOCAL ENERGY DECOMPOSITION FOR DLPNO-CC METHODS
 ===========================================================

Maximum Iterations for the Localization .. 600
Tolerance for the Localization          ..  1.00e-06
Number of fragments = 3
Fragment  1:  0
Fragment  2:  1
Fragment  3:  2

Populations of internal orbitals onto Fragments:
   0:      1.000    0.000    0.000  assigned to fragment   1
   1:      1.000    0.000    0.000  assigned to fragment   1
   2:      1.000    0.000    0.000  assigned to fragment   1
   3:      1.000    0.000    0.000  assigned to fragment   1
   4:      1.000    0.000    0.000  assigned to fragment   1
   5:      0.000    1.000    0.000  assigned to fragment   2
   6:      0.000    1.000    0.000  assigned to fragment   2
   7:      0.000    1.000    0.000  assigned to fragment   2
   8:      0.000    1.000    0.000  assigned to fragment   2
   9:      0.000    1.000    0.000  assigned to fragment   2
  10:      0.000    0.000    1.000  assigned to fragment   3
  11:      0.000    0.000    1.000  assigned to fragment   3
  12:      0.000    0.000    1.000  assigned to fragment   3
  13:      0.000    0.000    1.000  assigned to fragment   3
  14:      0.000    0.000    1.000  assigned to fragment   3
  15:      1.000    0.000    0.000  assigned to fragment   1
  16:      1.000    0.000    0.000  assigned to fragment   1
  17:      1.000    0.000    0.000  assigned to fragment   1
  18:      1.000    0.000    0.000  assigned to fragment   1
  19:      0.000    1.001    0.001  assigned to fragment   2
  20:      0.000    1.000    0.000  assigned to fragment   2
  21:      0.000    1.000    0.000  assigned to fragment   2
  22:      0.000    1.000    0.000  assigned to fragment   2
  23:      0.000    0.001    1.001  assigned to fragment   3
  24:      0.000    0.000    1.000  assigned to fragment   3
  25:      0.000    0.000    1.000  assigned to fragment   3
  26:      0.000    0.000    1.000  assigned to fragment   3

Summary assignment:
   9 orbitals assigned to fragment   1
   9 orbitals assigned to fragment   2
   9 orbitals assigned to fragment   3


--------------------------------
CORRELATION ENERGY DECOMPOSITION
--------------------------------


--------------------------------------------------
INTER- vs INTRA-FRAGMENT CORRELATION ENERGIES (Eh)
--------------------------------------------------

                                   Fragment   1            Fragment   2            Fragment   3            
                         ----------------------  ----------------------  ----------------------  
Intra strong pairs               0.000000000000         0.000000000000         0.000000000000  sum=        0.000000000000
Intra weak pairs                 0.000000000000         0.000000000000         0.000000000000  sum=        0.000000000000
Singles contribution            -0.000000000000         0.000000000043         0.000000000033  sum=        0.000000000075
                         ----------------------  ----------------------  ----------------------  
                                -0.000000000000         0.000000000043         0.000000000033  sum=        0.000000000075


Interaction correlation for Fragments   2 and   1:
--------------------------------------------------
Inter strong pairs               -0.000140983003 (   -0.088 kcal/mol)
Inter weak pairs                 -0.000071745704 (   -0.045 kcal/mol)
                          ----------------------
Total interaction                -0.000212728707 (   -0.133 kcal/mol)

Interaction correlation for Fragments   3 and   1:
--------------------------------------------------
Inter strong pairs               -0.000135971613 (   -0.085 kcal/mol)
Inter weak pairs                 -0.000076776260 (   -0.048 kcal/mol)
                          ----------------------
Total interaction                -0.000212747872 (   -0.134 kcal/mol)
Interaction correlation for Fragments   3 and   2:
--------------------------------------------------
Inter strong pairs               -0.001536354105 (   -0.964 kcal/mol)
Inter weak pairs                 -0.000046138221 (   -0.029 kcal/mol)
                          ----------------------
Total interaction                -0.001582492326 (   -0.993 kcal/mol)



Sum of INTRA-fragment correlation energies  =         0.000000000075
Sum of INTER-fragment correlation energies  =        -0.002007968905
                                              ---------------------
Total correlation energy                    =        -0.002007968830

---------------------------------------------
DECOMPOSITION OF CCSD STRONG PAIRS INTO      
    DOUBLE EXCITATION TYPES (Eh)             
---------------------------------------------

Foster-Boys localization is used for localizing PNOs

Intra fragment contributions: 
INTRA Fragment 1                        0.000000000 
INTRA Fragment 2                        0.000000000 
INTRA Fragment 3                        0.000000000 

Charge transfer contributions: 
Charge Transfer 1 to 2                 -0.000000352 
Charge Transfer 1 to 3                 -0.000000308 
Charge Transfer 2 to 1                 -0.000000324 
Charge Transfer 2 to 3                 -0.000089665 
Charge Transfer 3 to 1                 -0.000000317 
Charge Transfer 3 to 2                 -0.000089541 

Dispersion contributions: 
Dispersion  2,1                        -0.000140307 
Dispersion  3,1                        -0.000135347 
Dispersion  3,2                        -0.001357149 

Singles contributions:                   
Singles energy                          0.000000000 
 
Delocalized contributions: 
Delocalized correlation                 0.000000000 

#Time for LED analysis ..       0.0 (sec)



--------------------------------------------------------------------------------
                                    TIMINGS
--------------------------------------------------------------------------------


Total execution time                   ...        2.864 sec

Localization of occupied MO's          ...        0.103 sec (  3.6%)
Fock Matrix Formation                  ...        0.501 sec ( 17.5%)
Global overlap, Fock, MKN matrices     ...        0.086 sec (  3.0%)
Differential overlap integrals         ...        0.187 sec (  6.5%)
Organizing maps                        ...        0.002 sec (  0.1%)
RI 3-index integral generations        ...        0.999 sec ( 34.9%)
RI-PNO integral transformation         ...        0.357 sec ( 12.5%)
Initial Guess                          ...        0.245 sec (  8.6%)
DIIS Solver                            ...        0.003 sec (  0.1%)
State Vector Update                    ...        0.000 sec (  0.0%)
Sigma-vector construction              ...        0.167 sec (  5.8%)
  <D|H|D>(0-ext)                       ...        0.017 sec (  9.9% of sigma)
  <D|H|D>(2-ext)                       ...        0.023 sec ( 13.6% of sigma)
  <D|H|D>(4-ext)                       ...        0.002 sec (  1.1% of sigma)
  <D|H|D>(4-ext-corr)                  ...        0.006 sec (  3.8% of sigma)
  CCSD doubles correction              ...        0.003 sec (  1.9% of sigma)
  <S|H|S>                              ...        0.017 sec ( 10.1% of sigma)
  <S|H|D>(1-ext)                       ...        0.009 sec (  5.4% of sigma)
  <S|H|D>(3-ext)                       ...        0.001 sec (  0.9% of sigma)
  Fock-dressing                        ...        0.058 sec ( 34.4% of sigma)
  Singles amplitudes                   ...        0.004 sec (  2.4% of sigma)
  (ik|jl)-dressing                     ...        0.011 sec (  6.6% of sigma)
  (ij|ab),(ia|jb)-dressing             ...        0.013 sec (  7.7% of sigma)
Local Energy Decomposition             ...        0.010 sec (  0.4% of ALL)


Maximum memory used throughout the entire MDCI-calculation: 51.3 MB
----------------------------   ----------------
Inter-fragment dispersion       -0.001827462
----------------------------   ----------------


-------------------------   --------------------
FINAL SINGLE POINT ENERGY     -1580.401685197281 
-------------------------   --------------------


------------------------------------------------------------------------------
                              ORCA PROPERTY CALCULATIONS
------------------------------------------------------------------------------

GBWName                                 ... AR3LD_3.2_4.4_4.4.gbw
Number of atoms                         ...      3
Number of basis functions               ...    150
Max core memory                         ...   1024 MB

Electric properties:
Dipole moment                           ... YES
Quadrupole moment                       ...  NO
Static polarizability (Dipole/Dipole)   ...  NO
Static polarizability (Dipole/Quad.)    ...  NO
Static polarizability (Quad./Quad.)     ...  NO
Static polarizability (Velocity)        ...  NO

Atomic electric properties:
Dipole moment                           ...  NO
Quadrupole moment                       ...  NO
Static polarizability                   ...  NO

Choice of electric origin               ... Center of mass
Position of electric origin             ...     4.810212     1.877714     0.000000

General magnetic properties:
Magnetizability                         ...  NO

EPR properties:
g-Tensor (aka g-matrix)                 ...  NO
Zero-Field splitting spin-orbit         ...  NO
Zero-field splitting spin-spin          ...  NO
Hyperfine couplings                     ...  NO (   0 nuclei)
Quadrupole couplings                    ...  NO (   0 nuclei)
Contact density                         ...  NO (   0 nuclei)

NMR properties:
Chemical shifts                         ...  NO (   0 nuclei)
Spin-rotation constants                 ...  NO (   0 nuclei)
Spin-spin couplings                     ...  NO (   0 nuclei,    0 pairs)

Choice of magnetic origin               ... GIAO
Position of magnetic origin             ...     0.000000     0.000000     0.000000

Properties with geometric perturbations:
SCF Hessian                             ...  NO
IR spectrum                             ...  NO
VCD spectrum                            ...  NO
X-ray spectroscopy properties:
SCF XES/XAS/RIXS spectra                ...  NO


-------------
DIPOLE MOMENT
-------------

Method             : SCF
Type of density    : Electron Density
Multiplicity       :   1
Irrep              :   0
Energy             : -1580.3998577349175321 Eh
Relativity type    : 
Basis              : AO
                                X                 Y                 Z
Electronic contribution:     -0.000467942      -0.000182681       0.000000000
Nuclear contribution   :     -0.000000000       0.000000000       0.000000000
                        -----------------------------------------
Total Dipole Moment    :     -0.000467942      -0.000182681       0.000000000
                        -----------------------------------------
Magnitude (a.u.)       :      0.000502337
Magnitude (Debye)      :      0.001276839



--------------------
Rotational spectrum 
--------------------
 
Rotational constants in cm-1:             0.082420             0.037678             0.025857 
Rotational constants in MHz :          2470.885392          1129.547608           775.179731 

Dipole components along the rotational axes: 
x,y,z [a.u.] :     0.000502    -0.000000     0.000000 
x,y,z [Debye]:     0.001277    -0.000000     0.000000 

 

Dipole moment calculation done in   0.0 sec 

Maximum memory used throughout the entire PROP-calculation: 6.8 MB

--------------------------------
SUGGESTED CITATIONS FOR THIS RUN
--------------------------------

Below you find a list of papers that are relevant to this ORCA run
We neither can nor want to force you to cite these papers, but we appreciate if you do
You receive ORCA, which is the product of decades of hard work by many enthusiastic individuals, for free
The only thing we kindly ask in return is that you cite our papers,
We deeply appreciate it, if you show your appreciation for ORCA by not just citing the generic ORCA reference.

Please note that relegating all ORCA citations to the supporting information does *not* help us.
SI sections are not indexed - citations you put there will not count into any citation statistics
But we need these citations in order to attract the funding resources that allow us to do what we are doing

Therefore, if you are a happy ORCA user, please consider citing a few of the papers listed below in the main body of your paper

In addition to the list printed below, the program has created the file AR3LD_3.2_4.4_4.4.bibtex that contains the list in bibtex format
You can import this file easily into all common literature databanks and citation aid programs


List of essential papers. We consider these as the minimum necessary citations

  1. Neese,F.
     Software update: the ORCA program system, version 5.0
     WIRES Comput. Molec. Sci., 2022 12(1)e1606
     doi.org/10.1002/wcms.1606

List of papers to cite with high priority. The work reported in these papers was absolutely
necessary for this run to complete.
Our perspective: the developers of density functionals and basis sets usually get cited in chemistry papers
Good! But without the algorithms to do something with them, the functionals or basis sets would not do anything.
Hence, in our opinion, the algorithm design and method developments papers are equally worthy of getting cited

  1. Neese,F.; Hansen,A.; Liakos,D.G.
     Efficient and accurate approximations to the local coupled cluster singles doubles method using a truncated pair natural orbital basis
     J. Chem. Phys., 2009 131 064103
     doi.org/10.1063/1.3173827
  2. Neese,F.; Wennmohs,F.; Hansen,A.
     Efficient and accurate local approximations to coupled-electron pair approaches: An attempt to revive the pair natural orbital method
     J. Chem. Phys., 2009 130 114108
     doi.org/10.1063/1.3086717
  3. Riplinger,C.; Neese,F.
     An efficient and near linear scaling pair natural orbital based local coupled cluster method
     J. Chem. Phys., 2013 138(3)Art. No. 034106
     doi.org/10.1063/1.4773581
  4. Datta,D.; Kossmann,S.; Neese,F.
     Analytic energy derivatives for the calculation of the first-order molecular properties using the domain-based local pair-natural orbital coupled-cluster theory
     J. Chem. Phys., 2016 145 
     doi.org/10.1063/1.4962369
  5. Riplinger,C.; Pinski,P.; Becker,U.; Valeev,E.F.; Neese,F.
     Sparse maps-A systematic infrastructure for reduced-scaling electronic structure methods. II. Linear scaling domain based pair natural orbital coupled cluster theory
     J. Chem. Phys., 2016 144 
     doi.org/10.1063/1.4939030
  6. Schneider,W.B.; Bistoni,G.; Sparta,M.; Saitow,M.; Riplinger,C.; Auer,A.A.; Neese,F.
     Decomposition of Intermolecular Interaction Energies within the Local Pair Natural Orbital Coupled Cluster Framework
     J. Theo. Comp. Chem., 2016 12 4778-4792
     doi.org/10.1021/acs.jctc.6b00523
  7. Bistoni,G.; Riplinger,C.; Minenkov,Y.; Cavallo,L.; Auer,A.A.; Neese,F.
     Treating Subvalence Correlation Effects in Domain Based Pair Natural Orbital Coupled Cluster Calculations: An Out-of-the-Box Approach
     J. Theo. Comp. Chem., 2017 13 3220-3227
     doi.org/10.1021/acs.jctc.7b00352
  8. Altun,A.; Neese,F.; Bistoni,G.
     HFLD: A Nonempirical London Dispersion-Corrected Hartree-Fock Method for the Quantification and Analysis of Noncovalent Interaction Energies of Large Molecular Systems
     J. Chem. Theory Comput., 2019 15 5894-5907
     doi.org/10.1021/acs.jctc.9b00425
  9. Neese,F.
     The SHARK Integral Generation and Digestion System
     J. Comp. Chem., 2022  1-16
     doi.org/10.1002/jcc.26942
 10. Altun,A.; Neese,F.; Bistoni,G.
     Open-Shell Variant of the London Dispersion-Corrected Hartree–Fock Method (HFLD) for the Quantification and Analysis of Noncovalent Interaction Energies
     J. Chem. Theory Comput., 2022 XX XXXX-XXXX
     doi.org/10.1021/acs.jctc.1c01295

List of suggested additional citations. These are papers that are important in the 'surrounding' of 
of this run, or papers that preceded the highly important papers. If you like your results we are grateful for a citation.

  1. Neese,F.
     The ORCA program system
     WIRES Comput. Molec. Sci., 2012 2(1)73-78
     doi.org/10.1002/wcms.81
  2. Neese,F.
     Software update: the ORCA program system, version 4.0
     WIRES Comput. Molec. Sci., 2018 8(1)1-6
     doi.org/10.1002/wcms.1327
  3. Neese,F.; Wennmohs,F.; Becker,U.; Riplinger,C.
     The ORCA quantum chemistry program package
     J. Chem. Phys., 2020 152 Art. No. L224108
     doi.org/10.1063/5.0004608
  4. Bistoni,G.
     Finding chemical concepts in the Hilbert space: Coupled cluster analyses of noncovalent interactions
     WIRES Comput. Molec. Sci., 2020 10(3)e1442
     doi.org/10.1002/wcms.1442

List of optional additional citations

  1. Neese,F.
     Approximate second-order SCF convergence for spin unrestricted wavefunctions
     Chem. Phys. Lett., 2000 325(1-3)93-98
     doi.org/10.1016/s0009-2614(00)00662-x

Timings for individual modules:

Sum of individual times          ...        7.378 sec (=   0.123 min)
Startup calculation              ...        1.222 sec (=   0.020 min)  16.6 %
SCF iterations                   ...        3.158 sec (=   0.053 min)  42.8 %
Property integrals               ...        0.053 sec (=   0.001 min)   0.7 %
Property calculations            ...        0.058 sec (=   0.001 min)   0.8 %
MDCI module                      ...        2.888 sec (=   0.048 min)  39.1 %
                             ****ORCA TERMINATED NORMALLY****
TOTAL RUN TIME: 0 days 0 hours 0 minutes 7 seconds 428 msec
