
                                 *****************
                                 * O   R   C   A *
                                 *****************

                                            #,                                       
                                            ###                                      
                                            ####                                     
                                            #####                                    
                                            ######                                   
                                           ########,                                 
                                     ,,################,,,,,                         
                               ,,#################################,,                 
                          ,,##########################################,,             
                       ,#########################################, ''#####,          
                    ,#############################################,,   '####,        
                  ,##################################################,,,,####,       
                ,###########''''           ''''###############################       
              ,#####''   ,,,,##########,,,,          '''####'''          '####       
            ,##' ,,,,###########################,,,                        '##       
           ' ,,###''''                  '''############,,,                           
         ,,##''                                '''############,,,,        ,,,,,,###''
      ,#''                                            '''#######################'''  
     '                                                          ''''####''''         
             ,#######,   #######,   ,#######,      ##                                
            ,#'     '#,  ##    ##  ,#'     '#,    #''#        ,####,   ,####,        
            ##       ##  ##   ,#'  ##            #'  '#       #'       #'  '#        
            ##       ##  #######   ##           ,######,      #####,   #    #        
            '#,     ,#'  ##    ##  '#,     ,#' ,#      #,     #,   #   #,  ,#        
             '#######'   ##     ##  '#######'  #'      '#     '####' # '####'        



                #########################################################
                #                        -***-                          #
                #          Department of theory and spectroscopy        #
                #                                                       #
                #                      Frank Neese                      #
                #                                                       #
                #     Directorship, Architecture, Infrastructure        #
                #                    SHARK, DRIVERS                     #
                #        Core code/Algorithms in most modules           #
                #                                                       #
                #        Max Planck Institute fuer Kohlenforschung      #
                #                Kaiser Wilhelm Platz 1                 #
                #                 D-45470 Muelheim/Ruhr                 #
                #                      Germany                          #
                #                                                       #
                #                  All rights reserved                  #
                #                        -***-                          #
                #########################################################


                         Program Version 6.0.0  -   RELEASE  -


 With contributions from (in alphabetic order):
   Daniel Aravena         : Magnetic Suceptibility
   Michael Atanasov       : Ab Initio Ligand Field Theory (pilot matlab implementation)
   Alexander A. Auer      : GIAO ZORA, VPT2 properties, NMR spectrum
   Ute Becker             : All parallelization in ORCA, NUMFREQ, NUMCALC
   Giovanni Bistoni       : ED, misc. LED, open-shell LED, HFLD
   Martin Brehm           : Molecular dynamics
   Dmytro Bykov           : pre 5.0 version of the SCF Hessian
   Marcos Casanova-Páez   : Triplet and SCS-CIS(D). UHF-(DLPNO)-IP/EA/STEOM-CCSD. UHF-CVS-IP/STEOM-CCSD
   Vijay G. Chilkuri      : MRCI spin determinant printing, contributions to CSF-ICE
   Pauline Colinet        : FMM embedding
   Dipayan Datta          : RHF DLPNO-CCSD density
   Achintya Kumar Dutta   : EOM-CC, STEOM-CC
   Nicolas Foglia         : Exact transition moments, OPA infrastructure, MCD improvements
   Dmitry Ganyushin       : Spin-Orbit,Spin-Spin,Magnetic field MRCI
   Miquel Garcia          : C-PCM and meta-GGA Hessian, CCSD/C-PCM, Gaussian charge scheme
   Tiago L. C. Gouveia    : GS-ROHF, GS-ROCIS
   Yang Guo               : DLPNO-NEVPT2, F12-NEVPT2, CIM, IAO-localization
   Andreas Hansen         : Spin unrestricted coupled pair/coupled cluster methods
   Ingolf Harden          : AUTO-CI MPn and infrastructure 
   Benjamin Helmich-Paris : MC-RPA, TRAH-(SCF,CASSCF), AVAS, COSX integrals, SCF dyn. polar.
   Lee Huntington         : MR-EOM, pCC
   Robert Izsak           : Overlap fitted RIJCOSX, COSX-SCS-MP3, EOM
   Riya Kayal             : Wick's Theorem for AUTO-CI, AUTO-CI UHF-CCSDT
   Emily Kempfer          : AUTO-CI, RHF CISDT and CCSDT
   Christian Kollmar      : KDIIS, OOCD, Brueckner-CCSD(T), CCSD density, CASPT2, CASPT2-K, improved NEVPT2
   Axel Koslowski         : Symmetry handling
   Simone Kossmann        : Meta GGA functionals, TD-DFT gradient, OOMP2, (MP2 Hessian; deprecated post 5.0)
   Lucas Lang             : DCDCAS
   Marvin Lechner         : AUTO-CI (C++ implementation), FIC-MRCC
   Spencer Leger          : CASSCF response
   Dagmar Lenk            : GEPOL surface, SMD, ORCA-2-JSON
   Dimitrios Liakos       : Extrapolation schemes; Compound Job, initial MDCI parallelization
   Dimitrios Manganas     : Further ROCIS development; embedding schemes. LFT, Crystal Embedding
   Dimitrios Pantazis     : SARC Basis sets
   Anastasios Papadopoulos: AUTO-CI, single reference methods and gradients
   Taras Petrenko         : pre 6.0 DFT Hessian and TD-DFT gradient, (ASA, deprecated), ECA, 1-Electron XAS/XES, NRVS
   Peter Pinski           : DLPNO-MP2, DLPNO-MP2 Gradient
   Christoph Reimann      : Effective Core Potentials
   Marius Retegan         : Local ZFS, SOC
   Christoph Riplinger    : Optimizer, TS searches, QM/MM, DLPNO-CCSD(T), (RO)-DLPNO pert. Triples
   Michael Roemelt        : Original ROCIS implementation
   Masaaki Saitow         : Open-shell DLPNO-CCSD energy and density
   Barbara Sandhoefer     : DKH picture change effects
   Kantharuban Sivalingam : CASSCF convergence/infrastructure, NEVPT2 and variants, FIC-MRCI
   Bernardo de Souza      : ESD, SOC TD-DFT
   Georgi Stoychev        : AutoAux, RI-MP2 NMR, DLPNO-MP2 response, X2C
   Van Anh Tran           : RI-MP2 g-tensors
   Willem Van den Heuvel  : Paramagnetic NMR
   Zikuan Wang            : NOTCH, Electric field optimization 
   Frank Wennmohs         : Technical directorship and infrastructure
   Hang Xu                : AUTO-CI-Response properties 


 We gratefully acknowledge several colleagues who have allowed us to
 interface, adapt or use parts of their codes:
   Stefan Grimme, W. Hujo, H. Kruse, P. Pracht,  : VdW corrections, initial TS optimization,
                  C. Bannwarth, S. Ehlert,         DFT functionals, gCP, sTDA/sTD-DF
                  L. Wittmann, M. Mueller
   Ed Valeev, F. Pavosevic, A. Kumar             : LibInt (2-el integral package), F12 methods
   Garnet Chan, S. Sharma, J. Yang, R. Olivares  : DMRG
   Ulf Ekstrom                                   : XCFun DFT Library
   Mihaly Kallay                                 : mrcc  (arbitrary order and MRCC methods)
   Frank Weinhold                                : gennbo (NPA and NBO analysis)
   Simon Mueller                                 : openCOSMO-RS
   Christopher J. Cramer and Donald G. Truhlar   : smd solvation model
   Lars Goerigk                                  : TD-DFT with DH, B97 family of functionals
   V. Asgeirsson, H. Jonsson                     : NEB implementation
   FAccTs GmbH                                   : IRC, NEB, NEB-TS, DLPNO-Multilevel, CI-OPT
                                                   MM, QMMM, 2- and 3-layer-ONIOM, Crystal-QMMM,
                                                   LR-CPCM, SF, NACMEs, symmetry and pop. for TD-DFT,
                                                   nearIR, NL-DFT gradient (VV10), updates on ESD,
                                                   ML-optimized integration grids, MBIS, APM,
                                                   GOAT, DOCKER, SOLVATOR, interface openCOSMO-RS
   S Lehtola, MJT Oliveira, MAL Marques          : LibXC Library
   Liviu Ungur et al                             : ANISO software


 Your calculation uses the libint2 library for the computation of 2-el integrals
 For citations please refer to: http://libint.valeyev.net

 Your ORCA version has been built with support for libXC version: 6.2.2
 For citations please refer to: https://libxc.gitlab.io

 This ORCA versions uses:
   CBLAS   interface :  Fast vector & matrix operations
   LAPACKE interface :  Fast linear algebra routines
   SCALAPACK package :  Parallel linear algebra routines
   Shared memory     :  Shared parallel matrices
   BLAS/LAPACK       :  OpenBLAS 0.3.27  USE64BITINT DYNAMIC_ARCH NO_AFFINITY Haswell SINGLE_THREADED
        Core in use  :  Haswell
   Copyright (c) 2011-2014, The OpenBLAS Project


================================================================================

----- Orbital basis set information -----
Your calculation utilizes the basis: aug-cc-pVDZ 
    H, B-Ne : Obtained from the ccRepo (grant-hill.group.shef.ac.uk/ccrepo) Feb. 2017
              R. A. Kendall, T. H. Dunning, Jr., R. J. Harrison, J. Chem. Phys. 96, 6796 (1992)
         He : Obtained from the ccRepo (grant-hill.group.shef.ac.uk/ccrepo) Feb. 2017
              D. E. Woon, T. H. Dunning, Jr., J. Chem. Phys. 100, 2975 (1994)
  Li-Be, Na : Obtained from the ccRepo (grant-hill.group.shef.ac.uk/ccrepo) Feb. 2017
              B. P. Prascher, D. E. Woon, K. A. Peterson, T. H. Dunning, Jr., A. K. Wilson, Theor. Chem. Acc. 128, 69 (2011)
         Mg : Obtained from the Peterson Research Group Website (tyr0.chem.wsu.edu/~kipeters) Feb. 2017
              B. P. Prascher, D. E. Woon, K. A. Peterson, T. H. Dunning, Jr., A. K. Wilson, Theor. Chem. Acc. 128, 69 (2011)
      Al-Ar : Obtained from the ccRepo (grant-hill.group.shef.ac.uk/ccrepo) Feb. 2017
              D. E. Woon, T. H. Dunning, Jr., J. Chem. Phys. 98, 1358 (1993)
      Sc-Zn : Obtained from the ccRepo (grant-hill.group.shef.ac.uk/ccrepo) Feb. 2017
              N. B. Balabanov, K. A. Peterson, J. Chem. Phys. 123, 064107 (2005)
              N. B. Balabanov, K. A. Peterson, J. Chem. Phys. 125, 074110 (2006)
      Ga-Kr : Obtained from the ccRepo (grant-hill.group.shef.ac.uk/ccrepo) Feb. 2017
              A. K. Wilson, D. E. Woon, K. A. Peterson, T. H. Dunning, Jr., J. Chem. Phys. 110, 7667 (1999)

----- AuxC basis set information -----
Your calculation utilizes the auxiliary basis: aug-cc-pVDZ/C 
  H-He, B, Ne, Al-Ar, Ga-Ge, Se-Br : Obtained from the EMSL Basis Set Exchange (bse.pnl.gov) Feb. 2017
                                     F. Weigend, A. Kohn, C. Hattig, J. Chem. Phys. 116, 3175 (2002)
                            Be, Mg : Obtained from the TURBOMOLE 7.0 basis set library
                                     C. Haettig, Phys. Chem. Chem. Phys. 7, 59 (2005)
                               C-F : Obtained from the EMSL Basis Set Exchange (bse.pnl.gov) Feb. 2017
                                     C. Haettig, Phys. Chem. Chem. Phys. 7, 59 (2005)
                                     F. Weigend, A. Kohn, C. Hattig, J. Chem. Phys. 116, 3175 (2002)
                                As : Obtained from the EMSL Basis Set Exchange (bse.pnl.gov) Feb. 2017
                                     C. Haettig, G. Schmitz, J. Kossmann, Phys. Chem. Chem. Phys. 14, 6549 (2012)
                                Kr : Obtained from the TURBOMOLE 7.0 basis set library
                                     F. Weigend, A. Kohn, C. Hattig, J. Chem. Phys. 116, 3175 (2002)
                                     S function revised in Sep. 2009

================================================================================
                                        WARNINGS
                       Please study these warnings very carefully!
================================================================================


WARNING: Post HF methods need fully converged wavefunctions
  ===> : Setting SCFConvForced true
         You can overwrite this default with %scf ConvForced false 


================================================================================
                                       INPUT FILE
================================================================================
NAME = AR3LD_4.8_2.8_3.2.inp
|  1> # MP2 scan of the potential energy curve for Ar...Ar
|  2>                 ! HFLD aug-cc-pvdz aug-cc-pvdz/C verytightscf
|  3>                 *xyz 0 1
|  4>                 Ar(1)	0    0	0.00000000000000
|  5>                 Ar(2)	3.2	0    0.00000000000000
|  6>                 Ar(3)	-0.7749999999999996	2.6906086671978144    0.00000000000000
|  7>                 **                         ****END OF INPUT****
================================================================================

                       ****************************
                       * Single Point Calculation *
                       ****************************

---------------------------------
CARTESIAN COORDINATES (ANGSTROEM)
---------------------------------
  Ar     0.000000    0.000000    0.000000
  Ar     3.200000    0.000000    0.000000
  Ar    -0.775000    2.690609    0.000000

----------------------------
CARTESIAN COORDINATES (A.U.)
----------------------------
  NO LB      ZA    FRAG     MASS         X           Y           Z
   0 Ar   18.0000    1    39.948    0.000000    0.000000    0.000000
   1 Ar   18.0000    2    39.948    6.047124    0.000000    0.000000
   2 Ar   18.0000    3    39.948   -1.464538    5.084514    0.000000

----------------------------------------------
CARTESIAN COORDINATES OF FRAGMENTS (ANGSTROEM)
----------------------------------------------

 FRAGMENT 1 
  Ar    0.000000    0.000000    0.000000

 FRAGMENT 2 
  Ar    3.200000    0.000000    0.000000

 FRAGMENT 3 
  Ar   -0.775000    2.690609    0.000000

--------------------------------
INTERNAL COORDINATES (ANGSTROEM)
--------------------------------
 Ar     0   0   0     0.000000000000     0.00000000     0.00000000
 Ar     1   0   0     3.200000000000     0.00000000     0.00000000
 Ar     1   2   0     2.800000000000   106.06845938     0.00000000

---------------------------
INTERNAL COORDINATES (A.U.)
---------------------------
 Ar     0   0   0     0.000000000000     0.00000000     0.00000000
 Ar     1   0   0     6.047123628548     0.00000000     0.00000000
 Ar     1   2   0     5.291233174980   106.06845938     0.00000000

---------------------
BASIS SET INFORMATION
---------------------
There are 1 groups of distinct atoms

 Group   1 Type Ar  : 35s16p2d contracted to 5s4p2d pattern {11111111/7711/11}

Atom   0Ar   basis set group =>   1
Atom   1Ar   basis set group =>   1
Atom   2Ar   basis set group =>   1
---------------------------------
AUXILIARY/C BASIS SET INFORMATION
---------------------------------
There are 1 groups of distinct atoms

 Group   1 Type Ar  : 10s8p6d4f contracted to 10s8p6d4f pattern {1111111111/11111111/111111/1111}

Atom   0Ar   basis set group =>   1
Atom   1Ar   basis set group =>   1
Atom   2Ar   basis set group =>   1
------------------------------------------------------------------------------
                             ORCA STARTUP CALCULATIONS
------------------------------------------------------------------------------
------------------------------------------------------------------------------
                   ___                                                        
                  /   \      - P O W E R E D   B Y -                         
                 /     \                                                     
                 |  |  |   _    _      __       _____    __    __             
                 |  |  |  | |  | |    /  \     |  _  \  |  |  /  |          
                  \  \/   | |  | |   /    \    | | | |  |  | /  /          
                 / \  \   | |__| |  /  /\  \   | |_| |  |  |/  /          
                |  |  |   |  __  | /  /__\  \  |    /   |      \           
                |  |  |   | |  | | |   __   |  |    \   |  |\   \          
                \     /   | |  | | |  |  |  |  | |\  \  |  | \   \       
                 \___/    |_|  |_| |__|  |__|  |_| \__\ |__|  \__/        
                                                                              
                      - O R C A' S   B I G   F R I E N D -                    
                                      &                                       
                       - I N T E G R A L  F E E D E R -                       
                                                                              
 v1 FN, 2020, v2 2021, v3 2022-2024                                           
------------------------------------------------------------------------------


----------------------
SHARK INTEGRAL PACKAGE
----------------------

Number of atoms                             ...      3
Number of basis functions                   ...    150
Number of shells                            ...     72
Maximum angular momentum                    ...      2
Integral batch strategy                     ... SHARK/LIBINT Hybrid
RI-J (if used) integral strategy            ... SPLIT-RIJ (Revised 2003 algorithm where possible)
Printlevel                                  ...      1
Contraction scheme used                     ... PARTIAL GENERAL contraction
Prescreening option                         ... SCHWARTZ
   Thresh                                   ... 1.000e-12
   Tcut                                     ... 1.000e-14
   Tpresel                                  ... 1.000e-14 
Coulomb Range Separation                    ... NOT USED
Exchange Range Separation                   ... NOT USED
Multipole approximations                    ... NOT USED
Finite Nucleus Model                        ... NOT USED
CABS basis                                  ... NOT available
Auxiliary Coulomb fitting basis             ... NOT available
Auxiliary J/K fitting basis                 ... NOT available
Auxiliary Correlation fitting basis         ... AVAILABLE
   # of basis functions in Aux-C            ...    276
   # of shells in Aux-C                     ...     84
   Maximum angular momentum in Aux-C        ...      3
Auxiliary 'external' fitting basis          ... NOT available

Checking pre-screening integrals            ... done (  0.0 sec) Dimension = 72
Save PGC pre-screening integrals            ... done (  0.0 sec) Dimension = 72
Calculate PGC overlap integrals             ... done (  0.0 sec) Dimension = 33
Calculating pre-screening integrals (ORCA)  ... done (  0.1 sec) Dimension = 33
Check shell pair data                       ... done (  0.0 sec)
Shell pair information
Shell pair cut-off parameter TPreSel        ...   1.0e-14
Total number of shell pairs                 ...      2628
Shell pairs after pre-screening             ...      1770
Total number of primitive shell pairs       ...      2628
Primitive shell pairs kept                  ...      1770
          la=0 lb=0:    460 shell pairs
          la=1 lb=0:    663 shell pairs
          la=1 lb=1:    262 shell pairs
          la=2 lb=0:    214 shell pairs
          la=2 lb=1:    150 shell pairs
          la=2 lb=2:     21 shell pairs

Calculating one electron integrals          ... done (  0.0 sec)
Calculating RI/C V-Matrix + Cholesky decomp.... done (  0.0 sec)
Calculating Nuclear repulsion               ... done (  0.0 sec) ENN=    150.532016575339 Eh

Diagonalization of the overlap matrix:
Smallest eigenvalue                        ... 1.585e-02
Time for diagonalization                   ...    0.001 sec
Threshold for overlap eigenvalues          ... 1.000e-07
Number of eigenvalues below threshold      ... 0
Time for construction of square roots      ...    0.000 sec
Total time needed                          ...    0.001 sec

-------------------
DFT GRID GENERATION
-------------------

General Integration Accuracy     IntAcc      ... 4.388
Radial Grid Type                 RadialGrid  ... OptM3 with GC (2021)
Angular Grid (max. ang.)         AngularGrid ... 4 (Lebedev-302)
Angular grid pruning method      GridPruning ... 4 (adaptive)
Weight generation scheme         WeightScheme... mBecke (2022)
Basis function cutoff            BFCut       ... 1.0000e-12
Integration weight cutoff        WCut        ... 1.0000e-14
Partially contracted basis set               ... off
Rotationally invariant grid construction     ... off
Angular grids for H and He will be reduced by one unit

Total number of grid points                  ...    22066
Total number of batches                      ...      346
Average number of points per batch           ...       63
Average number of grid points per atom       ...     7355

---------------------
SHARK GRID GENERATION
---------------------

General Integration Accuracy     IntAcc      ... 4.388
Radial Grid Type                 RadialGrid  ... OptM3 with GC (2021)
Angular Grid (max. ang.)         AngularGrid ... 4 (Lebedev-302)
Angular grid pruning method      GridPruning ... 4 (adaptive)
Weight generation scheme         WeightScheme... mBecke (2022)
Basis function cutoff            BFCut       ... 1.0000e-12
Integration weight cutoff        WCut        ... 1.0000e-14
Partially contracted basis set               ... off
Rotationally invariant grid construction     ... off
Angular grids for H and He will be reduced by one unit
Core-polarized basis detected: some atoms will have their core
                               angular grid increased.
Steep s-basis detected: some atoms will have their radial
                        grid points doubled.

Total number of grid points                  ...    57984
Total number of batches                      ...      908
Average number of points per batch           ...       63
Average number of grid points per atom       ...    19328
Initializing property integral containers    ... done (  0.0 sec)

SHARK setup successfully completed in   1.2 seconds

Maximum memory used throughout the entire STARTUP-calculation: 27.5 MB
-------------------------------------------------------------------------------
                                 ORCA GUESS
                   Start orbitals & Density for SCF / CASSCF
-------------------------------------------------------------------------------

------------
SCF SETTINGS
------------
Hamiltonian:
 Ab initio Hamiltonian  Method          .... Hartree-Fock(GTOs)


General Settings:
 Integral files         IntName         .... AR3LD_4.8_2.8_3.2
 Hartree-Fock type      HFTyp           .... RHF
 Total Charge           Charge          ....    0
 Multiplicity           Mult            ....    1
 Number of Electrons    NEL             ....   54
 Basis Dimension        Dim             ....   81
 Nuclear Repulsion      ENuc            ....    150.5320165753 Eh

Convergence Acceleration:
 AO-DIIS                CNVDIIS         .... on
   Start iteration      DIISMaxIt       ....    12
   Startup error        DIISStart       ....  0.200000
   # of expansion vecs  DIISMaxEq       ....     5
   Bias factor          DIISBfac        ....   1.050
   Max. coefficient     DIISMaxC        ....  10.000
 MO-DIIS                CNVKDIIS        .... off
 Trust-Rad. Augm. Hess. CNVTRAH         .... auto
   Auto Start mean grad. ratio tolernc. ....  1.125000
   Auto Start start iteration           ....    50
   Auto Start num. interpolation iter.  ....    10
   Max. Number of Micro iterations      ....    24
   Max. Number of Macro iterations      .... Maxiter - #DIIS iter
   Number of Davidson start vectors     ....     2
   Converg. threshold    (grad. norm)   ....   2.000e-06
   Grad. Scal. Fac. for Micro threshold ....   0.100
   Minimum threshold for Micro iter.    ....   1.000e-02
   NR start threshold (gradient norm)   ....   1.000e-04
   Initial trust radius                 ....   0.400
   Minimum AH scaling param. (alpha)    ....   1.000
   Maximum AH scaling param. (alpha)    .... 1000.000
   Quad. conv. algorithm                .... NR
   White noise on init. David. guess    .... on
   Maximum white noise                  ....   0.010
   Pseudo random numbers                .... off
   Inactive MOs                         .... canonical
   Orbital update algorithm             .... Taylor
   Preconditioner                       .... Diag
   Full preconditioner red. dimension   ....   250
 SOSCF                  CNVSOSCF        .... on
   Start iteration      SOSCFMaxIt      ....   150
   Startup grad/error   SOSCFStart      ....  0.003300
   Hessian update       SOSCFHessUp     .... L-BFGS
 Level Shifting         CNVShift        .... on
   Level shift para.    LevelShift      ....    0.2500
   Turn off err/grad.   ShiftErr        ....    0.0010
 Zerner damping         CNVZerner       .... off
 Static damping         CNVDamp         .... on
   Fraction old density DampFac         ....    0.7000
   Max. Damping (<1)    DampMax         ....    0.9800
   Min. Damping (>=0)   DampMin         ....    0.0000
   Turn off err/grad.   DampErr         ....    0.1000

SCF Procedure:
 Maximum # iterations   MaxIter         ....   125
 SCF integral mode      SCFMode         .... Direct
   Integral package                     .... SHARK and LIBINT hybrid scheme
 Reset frequency        DirectResetFreq ....    20
 Integral Threshold     Thresh          ....  1.000e-12 Eh
 Primitive CutOff       TCut            ....  1.000e-14 Eh

Convergence Tolerance:
 Convergence Check Mode ConvCheckMode   .... Total+1el-Energy
 Convergence forced     ConvForced      .... 1
 Energy Change          TolE            ....  1.000e-09 Eh
 1-El. energy change                    ....  1.000e-06 Eh
 Orbital Gradient       TolG            ....  2.000e-06
 Orbital Rotation angle TolX            ....  2.000e-06
 DIIS Error             TolErr          ....  1.000e-08

------------------------------
INITIAL GUESS: MODEL POTENTIAL
------------------------------
Loading Hartree-Fock densities                     ... done
Calculating cut-offs                               ... done
Initializing the effective Hamiltonian             ... done
Setting up the integral package (SHARK)            ... done
Starting the Coulomb interaction                   ... done (   0.0 sec)
Making the grid                                    ... done (   0.0 sec)
Mapping shells                                     ... done
Starting the XC term evaluation                    ... done (   0.0 sec)
Transforming the Hamiltonian                       ... done (   0.0 sec)
Diagonalizing the Hamiltonian                      ... done (   0.0 sec)
Back transforming the eigenvectors                 ... done (   0.0 sec)
Now organizing SCF variables                       ... done
                      ------------------
                      INITIAL GUESS DONE (   0.0 sec)
                      ------------------
             **** ENERGY FILE WAS UPDATED (AR3LD_4.8_2.8_3.2.en.tmp) ****
Finished Guess after   0.1 sec
Maximum memory used throughout the entire GUESS-calculation: 6.7 MB

-------------------------------------------------------------------------------------------
                                      ORCA LEAN-SCF
                              memory conserving SCF solver
-------------------------------------------------------------------------------------------

----------------------------------------D-I-I-S--------------------------------------------
Iteration    Energy (Eh)           Delta-E    RMSDP     MaxDP     DIISErr   Damp  Time(sec)
-------------------------------------------------------------------------------------------
               ***  Starting incremental Fock matrix formation  ***
    1    -1580.3676378023492362     0.00e+00  1.13e-03  1.79e-02  9.20e-02  0.700   0.4
    2    -1580.3730614677047015    -5.42e-03  8.84e-04  1.31e-02  6.59e-02  0.700   1.0
                               ***Turning on AO-DIIS***
    3    -1580.3770169348285890    -3.96e-03  7.06e-04  9.57e-03  4.69e-02  0.700   1.0
    4    -1580.3798679671222089    -2.85e-03  1.73e-03  2.25e-02  3.29e-02  0.000   0.8
                              *** Initializing SOSCF ***
---------------------------------------S-O-S-C-F--------------------------------------
Iteration    Energy (Eh)           Delta-E    RMSDP     MaxDP     MaxGrad    Time(sec)
--------------------------------------------------------------------------------------
    5    -1580.3868558575168208    -6.99e-03  8.83e-05  1.04e-03  1.09e-03     1.0
               *** Restarting incremental Fock matrix formation ***
    6    -1580.3868656305739933    -9.77e-06  4.18e-05  5.61e-04  2.24e-04     0.5
    7    -1580.3868673087072239    -1.68e-06  1.53e-05  1.83e-04  5.27e-05     0.3
    8    -1580.3868674186446697    -1.10e-07  8.82e-07  1.59e-05  8.54e-06     0.3
    9    -1580.3868674192599428    -6.15e-10  1.84e-07  3.05e-06  1.38e-06     0.3
                 **** Energy Check signals convergence ****

               *****************************************************
               *                     SUCCESS                       *
               *           SCF CONVERGED AFTER   9 CYCLES          *
               *****************************************************

             **** ENERGY FILE WAS UPDATED (AR3LD_4.8_2.8_3.2.en.tmp) ****

----------------
TOTAL SCF ENERGY
----------------

Total Energy       :      -1580.38686741925994 Eh          -43004.51297 eV

Components:
Nuclear Repulsion  :        150.53201657533930 Eh            4096.18442 eV
Electronic Energy  :      -1730.91888399459935 Eh          -47100.69739 eV
One Electron Energy:      -2485.74954636050461 Eh          -67640.68394 eV
Two Electron Energy:        754.83066236590525 Eh           20539.98656 eV

Virial components:
Potential Energy   :      -3160.94098405101249 Eh          -86013.57702 eV
Kinetic Energy     :       1580.55411663175278 Eh           43009.06405 eV
Virial Ratio       :          1.99989418317871

---------------
SCF CONVERGENCE
---------------

  Last Energy change         ...    6.1527e-10  Tolerance :   1.0000e-09
  Last MAX-Density change    ...    3.0549e-06  Tolerance :   1.0000e-08
  Last RMS-Density change    ...    1.8394e-07  Tolerance :   1.0000e-09
  Last DIIS Error            ...    1.0853e-03  Tolerance :   1.0000e-08
  Last Orbital Gradient      ...    1.3791e-06  Tolerance :   2.0000e-06
  Last Orbital Rotation      ...    1.8284e-06  Tolerance :   2.0000e-06


----------------
ORBITAL ENERGIES
----------------

  NO   OCC          E(Eh)            E(eV) 
   0   2.0000    -118.608941     -3227.5134 
   1   2.0000    -118.605703     -3227.4252 
   2   2.0000    -118.604076     -3227.3810 
   3   2.0000     -12.321335      -335.2806 
   4   2.0000     -12.318792      -335.2114 
   5   2.0000     -12.317364      -335.1725 
   6   2.0000      -9.569917      -260.4107 
   7   2.0000      -9.569907      -260.4104 
   8   2.0000      -9.569906      -260.4104 
   9   2.0000      -9.567377      -260.3416 
  10   2.0000      -9.567280      -260.3389 
  11   2.0000      -9.567278      -260.3389 
  12   2.0000      -9.565949      -260.3027 
  13   2.0000      -9.565858      -260.3002 
  14   2.0000      -9.565852      -260.3001 
  15   2.0000      -1.288259       -35.0553 
  16   2.0000      -1.278578       -34.7919 
  17   2.0000      -1.268961       -34.5302 
  18   2.0000      -0.633959       -17.2509 
  19   2.0000      -0.613068       -16.6824 
  20   2.0000      -0.600056       -16.3284 
  21   2.0000      -0.591922       -16.1070 
  22   2.0000      -0.591564       -16.0973 
  23   2.0000      -0.590972       -16.0812 
  24   2.0000      -0.581829       -15.8324 
  25   2.0000      -0.570160       -15.5149 
  26   2.0000      -0.549248       -14.9458 
  27   0.0000       0.121809         3.3146 
  28   0.0000       0.126794         3.4502 
  29   0.0000       0.135085         3.6758 
  30   0.0000       0.137067         3.7298 
  31   0.0000       0.150920         4.1067 
  32   0.0000       0.165388         4.5004 
  33   0.0000       0.168187         4.5766 
  34   0.0000       0.187751         5.1090 
  35   0.0000       0.201362         5.4793 
  36   0.0000       0.213517         5.8101 
  37   0.0000       0.285107         7.7581 
*Only the first 10 virtual orbitals were printed.

                    ********************************
                    * MULLIKEN POPULATION ANALYSIS *
                    ********************************

-------------------------
MULLIKEN FRAGMENT CHARGES
-------------------------
 Fragment   0 :   0.001537
 Fragment   1 :  -0.000502
 Fragment   2 :  -0.001035
Sum of fragment charges:   -0.0000000

---------------------------------
MULLIKEN FRAGMENT OVERLAP CHARGES
---------------------------------
                  0          1          2    
      0      18.073885  -0.027727  -0.123118
      1      -0.027727  18.013526   0.001680
      2      -0.123118   0.001680  18.061754

-----------------------
MULLIKEN ATOMIC CHARGES
-----------------------
   0 Ar:    0.001537
   1 Ar:   -0.000502
   2 Ar:   -0.001035
Sum of atomic charges:   -0.0000000

--------------------------------
MULLIKEN REDUCED ORBITAL CHARGES
--------------------------------
  0 Ars       :     5.992388  s :     5.992388
      pz      :     3.999578  p :    12.004396
      px      :     4.001698
      py      :     4.003120
      dz2     :     0.000170  d :     0.001679
      dxz     :     0.000117
      dyz     :     0.000304
      dx2y2   :     0.000601
      dxy     :     0.000488

  1 Ars       :     5.998006  s :     5.998006
      pz      :     3.999900  p :    12.002161
      px      :     4.002321
      py      :     3.999940
      dz2     :     0.000034  d :     0.000335
      dxz     :     0.000095
      dyz     :     0.000000
      dx2y2   :     0.000106
      dxy     :     0.000100

  2 Ars       :     5.995481  s :     5.995481
      pz      :     3.999674  p :    12.004160
      px      :     4.000326
      py      :     4.004159
      dz2     :     0.000178  d :     0.001394
      dxz     :     0.000025
      dyz     :     0.000307
      dx2y2   :     0.000477
      dxy     :     0.000406



                     *******************************
                     * LOEWDIN POPULATION ANALYSIS *
                     *******************************

------------------------
LOEWDIN FRAGMENT CHARGES
------------------------
 Fragment   0 :  -0.003718
 Fragment   1 :   0.001954
 Fragment   2 :   0.001764

----------------------------
LOEWDIN FRAGMENT BOND ORDERS
----------------------------
                  0          1          2    
      0      18.003718   0.133375   0.287227
      1       0.133375  17.998046   0.003570
      2       0.287227   0.003570  17.998236

----------------------
LOEWDIN ATOMIC CHARGES
----------------------
   0 Ar:   -0.003718
   1 Ar:    0.001954
   2 Ar:    0.001764

-------------------------------
LOEWDIN REDUCED ORBITAL CHARGES
-------------------------------
  0 Ars       :     5.963111  s :     5.963111
      pz      :     3.998494  p :    12.012249
      px      :     4.008150
      py      :     4.005605
      dz2     :     0.006245  d :     0.028358
      dxz     :     0.000308
      dyz     :     0.001366
      dx2y2   :     0.014879
      dxy     :     0.005559

  1 Ars       :     5.986128  s :     5.986128
      pz      :     3.999724  p :    12.006923
      px      :     4.007777
      py      :     3.999422
      dz2     :     0.001135  d :     0.004996
      dxz     :     0.000204
      dyz     :     0.000000
      dx2y2   :     0.003415
      dxy     :     0.000240

  2 Ars       :     5.973192  s :     5.973192
      pz      :     3.998424  p :    12.001471
      px      :     3.998186
      py      :     4.004861
      dz2     :     0.005150  d :     0.023572
      dxz     :     0.000113
      dyz     :     0.001366
      dx2y2   :     0.011545
      dxy     :     0.005398



                      *****************************
                      * MAYER POPULATION ANALYSIS *
                      *****************************

  NA   - Mulliken gross atomic population
  ZA   - Total nuclear charge
  QA   - Mulliken gross atomic charge
  VA   - Mayer's total valence
  BVA  - Mayer's bonded valence
  FA   - Mayer's free valence

  ATOM       NA         ZA         QA         VA         BVA        FA
  0 Ar    17.9985    18.0000     0.0015    -0.0299    -0.0299    -0.0000
  1 Ar    18.0005    18.0000    -0.0005    -0.0024    -0.0024    -0.0000
  2 Ar    18.0010    18.0000    -0.0010    -0.0243    -0.0243     0.0000

  Mayer bond orders larger than 0.100000
  => no bond orders to print

-------
TIMINGS
-------

Total SCF time: 0 days 0 hours 0 min 5 sec 

Total time                  ....       5.700 sec
Sum of individual times     ....       5.689 sec  ( 99.8%)

SCF preparation             ....       0.030 sec  (  0.5%)
Fock matrix formation       ....       5.623 sec  ( 98.7%)
  Startup                   ....       0.001 sec  (  0.0% of F)
  Coulomb+Exchange Fock     ....       5.617 sec  ( 99.9% of F)
Diagonalization             ....       0.000 sec  (  0.0%)
Density matrix formation    ....       0.005 sec  (  0.1%)
Total Energy calculation    ....       0.001 sec  (  0.0%)
Population analysis         ....       0.001 sec  (  0.0%)
Orbital Transformation      ....       0.004 sec  (  0.1%)
Orbital Orthonormalization  ....       0.000 sec  (  0.0%)
DIIS solution               ....       0.019 sec  (  0.3%)
SOSCF solution              ....       0.007 sec  (  0.1%)
Finished LeanSCF after   5.7 sec

Maximum memory used throughout the entire LEANSCF-calculation: 8.7 MB

------------------------------------------------------------------------------
                         ORCA PROPERTY INTEGRAL CALCULATIONS
------------------------------------------------------------------------------

GBWName                                   ... AR3LD_4.8_2.8_3.2.gbw
Number of atoms                           ...      3
Number of basis functions                 ...    150
Max core memory                           ...   1024 MB

Dipole integrals                          ... YES
Quadrupole integrals                      ...  NO
Linear momentum integrals                 ... YES
Angular momentum integrals                ... YES
Higher moments length integrals           ...  NO
Higher moments velocity integrals         ...  NO
Kinetic energy integrals                  ...  NO
GIAO right hand sides                     ...  NO
GIAO dipole derivative integrals          ...  NO
SOC integrals                             ...  NO
EPR diamagnetic integrals (GIAO)          ...  NO
EPR gauge integrals                       ...  NO
Field gradient integrals                  ...  NO (   0 nuclei)
Spin-dipole/Fermi contact integrals       ...  NO (   0 nuclei)
Contact density integrals                 ...  NO (   0 nuclei)
Nucleus-orbit integrals                   ...  NO (   0 nuclei)
Geometric perturbations                   ...  NO (   3 nuclei)

Choice of electric origin   ... Center of mass
Position of electric origin ... (  1.5275,  1.6948,  0.0000) 
Choice of magnetic origin   ... GIAO
Position of magnetic origin ... (  0.0000,  0.0000,  0.0000) 

Calculating integrals                     ... Electric Dipole (Length)     done (  0.0 sec)
Calculating integrals                     ... Linear Momentum              done (  0.0 sec)
Calculating integrals                     ... Angular Momentum  (ElOri)    done (  0.0 sec)

Property integrals calculated in   0.0 sec

Maximum memory used throughout the entire PROPINT-calculation: 6.8 MB


--------------------------------------------------------------------------------
                             ORCA-MATRIX DRIVEN CI
--------------------------------------------------------------------------------


Wavefunction type
-----------------
Correlation treatment                      ...      CCSD     
Single excitations                         ... ON
Orbital optimization                       ... OFF
Calculation of Z vector                    ... OFF
Calculation of Brueckner orbitals          ... OFF
Perturbative triple excitations            ... OFF
Calculation of F12 correction              ... OFF
Frozen core treatment                      ... chemical core (30 el)
Reference Wavefunction                     ... RHF
  Internal Orbitals:    15 ...   26 ( 12 MO's/ 24 electrons)
  Virtual  Orbitals:    27 ...   80 ( 54 MO's              )
Number of AO's                             ...     81
Number of electrons                        ...     54
Number of correlated electrons             ...     24

Algorithmic settings
--------------------
Integral transformation                    ... All integrals via the RI transformation
K(C) Formation                             ... RI-DLPNO
   PNO-Integral Storage                    ... ON DISK
   PNO occupation number cut-off           ... 3.330e-07
   Singles PNO occupation number cut-off   ... 9.990e-09
   PNO Mulliken prescreening cut-off       ... 1.000e-03
   Domain cut-off (Mulliken population)    ... 1.000e-03
   PNO Normalization                       ...    1
Maximum number of iterations               ...        50
Convergence tolerance (max. residuum)      ... 1.000e-06
Level shift for amplitude update           ... 2.000e-01
Maximum number of DIIS vectors             ...         7
DIIS turned on at iteration                ...         0
Damping before turning on DIIS             ...     0.500
Damping after turning on DIIS              ...     0.000
Pair specific amplitude update             ... OFF
Natural orbital iterations                 ... OFF
Perturbative natural orbital generation    ... OFF
Printlevel                                 ... 2

Singles Fock matrix elements calculated using PNOs.

Memory handling:
----------------
Maximum memory for working arrays          ...    512 MB
Data storage in matrix containers          ... UNCOMPRESSED
Data type for integral storage             ... DOUBLE
In-Core Storage of quantities:
   Amplitudes+Sigma Vector      ... NO
   J+K operators                ... NO
   DIIS vectors                 ... NO
   3-external integrals         ... NO
   4-external integrals         ... NO

Localization treatment:
-----------------------
Localization option                        ...    2
Localization threshhold                    ... -1.0e+00
Using relative localization threshhold     ... 1.0e-08
Neglect threshold for strong pairs         ... 1.000e-05 Eh
Prescreening threshold for very weak pairs ... 1.000e-07 Eh
Using randomized seed for localization     ... on

Initializing the integral package          ... done
Localizing the valence orbitals
Localizing the valence orbitals
Localization sum:   202.819307819 
------------------------------------------------------------------------------
                           ORCA ORBITAL LOCALIZATION
------------------------------------------------------------------------------

Input orbitals are from                  ... AR3LD_4.8_2.8_3.2.proc0.gbw
Output orbitals are to                   ... AR3LD_4.8_2.8_3.2.proc0.loc
Max. number of iterations                ... 128
Localizations seeded randomly            ... on
Convergence tolerance                    ... 2.000e-07
Using relative localization threshhold   ... 1.000e-08
Threshold for strong local MOs           ... 9.500e-01
Threshold for bond MOs                   ... 8.500e-01
Operator                                 ... 0
Orbital range for localization           ... 15 to 26
Localization criterion                   ... FOSTER-BOYS
Doing the dipole integrals     ... o.k.
Entering Jacobi type localization:
Using Cholesky decomposition as initial guess.
Initial value of the localization sum :   195.877295
ITERATION   0 : L=  202.7519066022 DL=  6.87e+00 (MAX-T)=  45.000 
ITERATION   1 : L=  202.7713603381 DL=  1.95e-02 (MAX-T)=   3.450 
ITERATION   2 : L=  202.7757547302 DL=  4.39e-03 (MAX-T)=   1.347 
ITERATION   3 : L=  202.7792689029 DL=  3.51e-03 (MAX-T)=   1.480 
ITERATION   4 : L=  202.7836889088 DL=  4.42e-03 (MAX-T)=   1.407 
ITERATION   5 : L=  202.7872379140 DL=  3.55e-03 (MAX-T)=   1.420 
ITERATION   6 : L=  202.7908872850 DL=  3.65e-03 (MAX-T)=   1.203 
ITERATION   7 : L=  202.7941592441 DL=  3.27e-03 (MAX-T)=   1.099 
ITERATION   8 : L=  202.7967899910 DL=  2.63e-03 (MAX-T)=   1.017 
ITERATION   9 : L=  202.7992110203 DL=  2.42e-03 (MAX-T)=   1.010 
ITERATION  10 : L=  202.8013333315 DL=  2.12e-03 (MAX-T)=   0.790 
ITERATION  11 : L=  202.8030916596 DL=  1.76e-03 (MAX-T)=   0.925 
ITERATION  12 : L=  202.8047870016 DL=  1.70e-03 (MAX-T)=   0.864 
ITERATION  13 : L=  202.8060007477 DL=  1.21e-03 (MAX-T)=   0.764 
ITERATION  14 : L=  202.8071540294 DL=  1.15e-03 (MAX-T)=   0.680 
ITERATION  15 : L=  202.8082958694 DL=  1.14e-03 (MAX-T)=   0.617 
ITERATION  16 : L=  202.8093047737 DL=  1.01e-03 (MAX-T)=   0.549 
ITERATION  17 : L=  202.8100871399 DL=  7.82e-04 (MAX-T)=   0.590 
ITERATION  18 : L=  202.8107369323 DL=  6.50e-04 (MAX-T)=   0.568 
ITERATION  19 : L=  202.8114759872 DL=  7.39e-04 (MAX-T)=   0.598 
ITERATION  20 : L=  202.8120969903 DL=  6.21e-04 (MAX-T)=   0.583 
ITERATION  21 : L=  202.8126636552 DL=  5.67e-04 (MAX-T)=   0.538 
ITERATION  22 : L=  202.8132583482 DL=  5.95e-04 (MAX-T)=   0.571 
ITERATION  23 : L=  202.8137410163 DL=  4.83e-04 (MAX-T)=   0.537 
ITERATION  24 : L=  202.8142058050 DL=  4.65e-04 (MAX-T)=   0.461 
ITERATION  25 : L=  202.8145802491 DL=  3.74e-04 (MAX-T)=   0.545 
ITERATION  26 : L=  202.8150469782 DL=  4.67e-04 (MAX-T)=   0.386 
ITERATION  27 : L=  202.8154329776 DL=  3.86e-04 (MAX-T)=   0.459 
ITERATION  28 : L=  202.8157566583 DL=  3.24e-04 (MAX-T)=   0.490 
ITERATION  29 : L=  202.8160863932 DL=  3.30e-04 (MAX-T)=   0.470 
ITERATION  30 : L=  202.8163586811 DL=  2.72e-04 (MAX-T)=   0.456 
ITERATION  31 : L=  202.8166179059 DL=  2.59e-04 (MAX-T)=   0.433 
ITERATION  32 : L=  202.8168175031 DL=  2.00e-04 (MAX-T)=   0.351 
ITERATION  33 : L=  202.8170132373 DL=  1.96e-04 (MAX-T)=   0.391 
ITERATION  34 : L=  202.8172141594 DL=  2.01e-04 (MAX-T)=   0.379 
ITERATION  35 : L=  202.8174228097 DL=  2.09e-04 (MAX-T)=   0.309 
ITERATION  36 : L=  202.8175100067 DL=  8.72e-05 (MAX-T)=   0.309 
ITERATION  37 : L=  202.8177033814 DL=  1.93e-04 (MAX-T)=   0.368 
ITERATION  38 : L=  202.8178365216 DL=  1.33e-04 (MAX-T)=   0.293 
ITERATION  39 : L=  202.8180107706 DL=  1.74e-04 (MAX-T)=   0.288 
ITERATION  40 : L=  202.8181074388 DL=  9.67e-05 (MAX-T)=   0.299 
ITERATION  41 : L=  202.8181956855 DL=  8.82e-05 (MAX-T)=   0.266 
ITERATION  42 : L=  202.8183080383 DL=  1.12e-04 (MAX-T)=   0.270 
ITERATION  43 : L=  202.8183952485 DL=  8.72e-05 (MAX-T)=   0.210 
ITERATION  44 : L=  202.8184986033 DL=  1.03e-04 (MAX-T)=   0.282 
ITERATION  45 : L=  202.8185780060 DL=  7.94e-05 (MAX-T)=   0.203 
ITERATION  46 : L=  202.8186528778 DL=  7.49e-05 (MAX-T)=   0.201 
ITERATION  47 : L=  202.8187180833 DL=  6.52e-05 (MAX-T)=   0.178 
ITERATION  48 : L=  202.8187736850 DL=  5.56e-05 (MAX-T)=   0.190 
ITERATION  49 : L=  202.8188246587 DL=  5.10e-05 (MAX-T)=   0.193 
ITERATION  50 : L=  202.8188769935 DL=  5.23e-05 (MAX-T)=   0.197 
ITERATION  51 : L=  202.8189135773 DL=  3.66e-05 (MAX-T)=   0.133 
ITERATION  52 : L=  202.8189550416 DL=  4.15e-05 (MAX-T)=   0.141 
ITERATION  53 : L=  202.8189986279 DL=  4.36e-05 (MAX-T)=   0.171 
ITERATION  54 : L=  202.8190305281 DL=  3.19e-05 (MAX-T)=   0.140 
ITERATION  55 : L=  202.8190590073 DL=  2.85e-05 (MAX-T)=   0.136 
ITERATION  56 : L=  202.8190889200 DL=  2.99e-05 (MAX-T)=   0.117 
ITERATION  57 : L=  202.8191143002 DL=  2.54e-05 (MAX-T)=   0.122 
ITERATION  58 : L=  202.8191345626 DL=  2.03e-05 (MAX-T)=   0.116 
ITERATION  59 : L=  202.8191541119 DL=  1.95e-05 (MAX-T)=   0.104 
ITERATION  60 : L=  202.8191672818 DL=  1.32e-05 (MAX-T)=   0.101 
ITERATION  61 : L=  202.8191779807 DL=  1.07e-05 (MAX-T)=   0.081 
ITERATION  62 : L=  202.8191945824 DL=  1.66e-05 (MAX-T)=   0.093 
ITERATION  63 : L=  202.8192073111 DL=  1.27e-05 (MAX-T)=   0.078 
ITERATION  64 : L=  202.8192175824 DL=  1.03e-05 (MAX-T)=   0.084 
ITERATION  65 : L=  202.8192262216 DL=  8.64e-06 (MAX-T)=   0.061 
ITERATION  66 : L=  202.8192380681 DL=  1.18e-05 (MAX-T)=   0.078 
ITERATION  67 : L=  202.8192456232 DL=  7.56e-06 (MAX-T)=   0.082 
ITERATION  68 : L=  202.8192525531 DL=  6.93e-06 (MAX-T)=   0.068 
ITERATION  69 : L=  202.8192588090 DL=  6.26e-06 (MAX-T)=   0.056 
ITERATION  70 : L=  202.8192662159 DL=  7.41e-06 (MAX-T)=   0.071 
ITERATION  71 : L=  202.8192713911 DL=  5.18e-06 (MAX-T)=   0.068 
ITERATION  72 : L=  202.8192760547 DL=  4.66e-06 (MAX-T)=   0.069 
ITERATION  73 : L=  202.8192811993 DL=  5.14e-06 (MAX-T)=   0.055 
ITERATION  74 : L=  202.8192852633 DL=  4.06e-06 (MAX-T)=   0.054 
ITERATION  75 : L=  202.8192904546 DL=  5.19e-06 (MAX-T)=   0.057 
ITERATION  76 : L=  202.8192941134 DL=  3.66e-06 (MAX-T)=   0.044 
ITERATION  77 : L=  202.8192970370 DL=  2.92e-06 (MAX-T)=   0.044 
ITERATION  78 : L=  202.8193010499 DL=  4.01e-06 (MAX-T)=   0.047 
ITERATION  79 : L=  202.8193035548 DL=  2.50e-06 (MAX-T)=   0.035 
ITERATION  80 : L=  202.8193061667 DL=  2.61e-06 (MAX-T)=   0.038 
ITERATION  81 : L=  202.8193078192 DL=  1.65e-06 (MAX-T)=   0.034 
LOCALIZATION SUM CONVERGED


--------------------------------------------------------------------------------
                    LOCALIZED MOLECULAR ORBITAL COMPOSITIONS
--------------------------------------------------------------------------------

The Mulliken populations for each LMO on each atom are computed
The LMO`s will be ordered according to atom index and type
  (A) Strongly localized MO`s have populations of >=0.950 on one atom
  (B) Two center bond orbitals have populations of >=0.850 on two atoms
  (C) Other MO`s are considered to be `delocalized`

FOUND  -  12 strongly local MO`s
       -   0 two center bond MO`s
       -   0 significantly delocalized MO`s

Rather strongly localized orbitals:
MO  26:   2Ar -   1.002017
MO  25:   2Ar -   1.002142
MO  24:   2Ar -   1.001905
MO  23:   2Ar -   1.002032
MO  22:   1Ar -   1.000273
MO  21:   1Ar -   1.000286
MO  20:   1Ar -   1.000931
MO  19:   1Ar -   1.000093
MO  18:   0Ar -   1.002299
MO  17:   0Ar -   1.002271
MO  16:   0Ar -   1.002612
MO  15:   0Ar -   1.002144
Localized MO's were stored in: AR3LD_4.8_2.8_3.2.proc0.loc

Localizing the core orbitals
Localization sum:   245.193472706 
------------------------------------------------------------------------------
                           ORCA ORBITAL LOCALIZATION
------------------------------------------------------------------------------

Input orbitals are from                  ... AR3LD_4.8_2.8_3.2.proc0.loc
Output orbitals are to                   ... AR3LD_4.8_2.8_3.2.proc0.loc
Max. number of iterations                ... 128
Localizations seeded randomly            ... on
Convergence tolerance                    ... 2.000e-07
Using relative localization threshhold   ... 1.000e-08
Threshold for strong local MOs           ... 9.500e-01
Threshold for bond MOs                   ... 8.500e-01
Operator                                 ... 0
Orbital range for localization           ... 0 to 14
Localization criterion                   ... FOSTER-BOYS
Doing the dipole integrals     ... o.k.
Entering Jacobi type localization:
Using Cholesky decomposition as initial guess.
Initial value of the localization sum :   244.736983
ITERATION   0 : L=  245.1931331791 DL=  4.56e-01 (MAX-T)=  45.000 
ITERATION   1 : L=  245.1934716436 DL=  3.38e-04 (MAX-T)=   2.518 
ITERATION   2 : L=  245.1934727057 DL=  1.06e-06 (MAX-T)=   0.134 
LOCALIZATION SUM CONVERGED


--------------------------------------------------------------------------------
                    LOCALIZED MOLECULAR ORBITAL COMPOSITIONS
--------------------------------------------------------------------------------

The Mulliken populations for each LMO on each atom are computed
The LMO`s will be ordered according to atom index and type
  (A) Strongly localized MO`s have populations of >=0.950 on one atom
  (B) Two center bond orbitals have populations of >=0.850 on two atoms
  (C) Other MO`s are considered to be `delocalized`

FOUND  -  15 strongly local MO`s
       -   0 two center bond MO`s
       -   0 significantly delocalized MO`s

Rather strongly localized orbitals:
MO  14:   2Ar -   1.000051
MO  13:   2Ar -   1.000045
MO  12:   2Ar -   1.000024
MO  11:   2Ar -   1.000000
MO  10:   2Ar -   1.000018
MO   9:   1Ar -   1.000012
MO   8:   1Ar -   1.000022
MO   7:   1Ar -   1.000019
MO   6:   1Ar -   1.000000
MO   5:   1Ar -   1.000029
MO   4:   0Ar -   1.000062
MO   3:   0Ar -   1.000038
MO   2:   0Ar -   1.000062
MO   1:   0Ar -   1.000001
MO   0:   0Ar -   1.000038
Localized MO's were stored in: AR3LD_4.8_2.8_3.2.proc0.loc

Warning: reference  - re-canonicalizations have been set to INT 1 VIRT 1
Warning: internal orbitals are localized - no re-canonicalization of internal orbitals
Warning: UsePNO is turned on - no re-canonicalization of internal and virtual orbitals
Fock densities were made 
Making Fock matrix and reference energy:

--------------------------
CLOSED-SHELL FOCK OPERATOR
--------------------------

Time needed for Fock operator              ...            0.840 sec
Reference energy                           ...  -1580.386867419

--------------
DLPNO SETTINGS (2015 fully linear scaling implementation)
--------------

TCutMKN:           1.000e-03
TCutPAO:           1.000e-03
TCutPNO:           3.330e-07
TCutPNOSingles:    9.990e-09
TCutEN:            9.700e-01
TCutPAOExt:        1.000e-01
TCutPairs:         1.000e-05
TCutPre:           1.000e-07
TCutOSV:           1.000e-06
TCutDOij:          1.000e-05
TCutDO:            1.000e-02
TCutC:             1.000e-04
TCutCPAO:          1.000e-03
TCutCMO:           1.000e-03
TScaleDOMP2PreScr: 2.000e+00
TScaleMKNMP2PreScr:1.000e+01
TScalePNOMP2PreScr:1.000e+00
PAO overlap thresh 1.000e-08
Using PNOs for Singles Fock computation
Use new domains
Use fully linear algorithm

--------------------------
Mulliken population of the LMOs            ... ok
Performing proximity check                 ... No problems found
Calculating differential overlap integrals ... ok

------------------------
PRESCREENING OF HF PAIRS
------------------------

   .... Finished loop over pairs

                  ============================================
                    30 of   78 PAIRS WERE SKIPPED as HF PAIRS
                  ============================================

Total time spent in skipping HF pairs                 ...     0.000 sec
--------------------------
ELECTRON PAIR PRESCREENING
--------------------------

Dipole-based pair screening          .... used

   TCutDOij = 1.000000e-05
   TCutPre  = 1.000000e-07
   .... Finished loop over pairs
Total time spent in the prescreening                  ...     0.000 sec
sum of pair energies estimated for screened out pairs ...       0.000000000000 Eh
Thresholds for map construction and integral transformation for crude MP2:
   TCutMKN                    ...     1.0e-02
   TCutDO                     ...     2.0e-02
   TCutPairs                  ...     1.0e-05
   TCutPNO_CrudeMP2           ...     3.3e-07
   TCutPNOSingles_CrudeMP2    ...     1.0e-08
--------------------------------
LOCAL RI TRANSFORMATION (IAVPAO)
--------------------------------

Orbital window:      15 to 26
Number of PAOs:      81
Basis functions:     81 (33 shells)
Aux. functions:     276 (84 shells)
Use SHARK:           on
Have SHARK:         yes

Processing maps (0.0 sec)
Average map sizes:
   Aux shells -> MOs              12.0
   Aux shells -> PAOs             81.0
   MOs        -> AO shells        30.2
   PAOs       -> AO shells        33.0

Calculating integrals (0.1 sec, 2.050 MB)
Sorting integrals (0.0 sec, 2.047 MB)
Total time for the integral transformation: 0.1 sec
--------------------------------
INITIAL GUESS AND PNO GENERATION
--------------------------------

Populations of internal orbitals onto Fragments:
  15:      1.002    0.000    0.002  assigned to fragment   1
  16:      1.003    0.001    0.002  assigned to fragment   1
  17:      1.002    0.000    0.002  assigned to fragment   1
  18:      1.002    0.000    0.002  assigned to fragment   1
  19:      0.000    1.000    0.000  assigned to fragment   2
  20:      0.001    1.001    0.000  assigned to fragment   2
  21:      0.000    1.000    0.000  assigned to fragment   2
  22:      0.000    1.000    0.000  assigned to fragment   2
  23:      0.002    0.000    1.002  assigned to fragment   3
  24:      0.002    0.000    1.002  assigned to fragment   3
  25:      0.002    0.000    1.002  assigned to fragment   3
  26:      0.002    0.000    1.002  assigned to fragment   3

Summary assignment:
   4 orbitals assigned to fragment   1
   4 orbitals assigned to fragment   2
   4 orbitals assigned to fragment   3

PNO truncation parameters                   .... 
    PAOOverlapThresh   =        1.000e-08

Pair selection                          .... 
  modified with fragment specific keywords
  Pairs will be selected according to these
  intra(inter)fragment cutoffs
  1 <-> 1
    Intrafragment pairs 1 <-> 1 neglected for CCSD
  1 <-> 2
    TCutPairs          =        1.000e-05
    TCutPNO            =        3.330e-07
    TCutMKN            =        1.000e-02
    TCutDO             =        2.000e-02
    TCutPNOSingles     =        9.990e-09
    TCutMP2Pairs       =        1.000e-06
  1 <-> 3
    TCutPairs          =        1.000e-05
    TCutPNO            =        3.330e-07
    TCutMKN            =        1.000e-02
    TCutDO             =        2.000e-02
    TCutPNOSingles     =        9.990e-09
    TCutMP2Pairs       =        1.000e-06
  2 <-> 2
    Intrafragment pairs 2 <-> 2 neglected for CCSD
  2 <-> 3
    TCutPairs          =        1.000e-05
    TCutPNO            =        3.330e-07
    TCutMKN            =        1.000e-02
    TCutDO             =        2.000e-02
    TCutPNOSingles     =        9.990e-09
    TCutMP2Pairs       =        1.000e-06
  3 <-> 3
    Intrafragment pairs 3 <-> 3 neglected for CCSD

Type of local MP2 treatment                 .... semi-local MP2
Strategy for PNO selection                  .... occupation number selection
Pair density normalization                  .... MP2 norm
Spin component scaling                      .... not used

   .... Finished loop over pairs
Making pair pair interaction lists          ... done

                       ===========================
                         34 OF   60 PAIRS ARE KEPT CCSD PAIRS
                         14 OF   60 PAIRS ARE KEPT MP2 PAIRS
                         12 OF   60 PAIRS ARE SKIPPED
                       ===========================

Total time spent in the initial guess                 ...     0.100 sec
SL-MP2 correlation energy (all non-screened pairs)    ...      -0.005207085104 Eh

Initial PNO correlation energy                        ...      -0.004995289267 Eh
sum of pair energies prescreened and skipped MP2 pairs...       0.000000000000 Eh
sum of pair energies of crude MP2 skipped pairs only  ...       0.000000000000 Eh
sum of MP2 pair energies for pairs that were not kept ...      -0.000098107767 Eh
sum of PNO error estimates for the kept pairs         ...      -0.000113688069 Eh
                                                          --------------------
sum of all corrections                                         -0.000211795837
Initial total correlation energy                               -0.005207085104
Thresholds for map construction and integral transformation for fine MP2 and CCSD(T) calculation:
   TCutMKN   ...     1.0e-03
   TCutDO    ...     1.0e-02
   TCutPairs ...     1.0e-05
   TCutCMO   ...     1.0e-03
   TCutCPAO  ...     1.0e-03

--------------------------------
LOCAL RI TRANSFORMATION (IAVPAO)
--------------------------------

Orbital window:      15 to 26
Number of PAOs:      81
Basis functions:     81 (33 shells)
Aux. functions:     276 (84 shells)
Use SHARK:           on
Have SHARK:         yes

Processing maps (0.0 sec)
Average map sizes:
   Aux shells -> MOs              12.0
   Aux shells -> PAOs             81.0
   MOs        -> AO shells        30.2
   PAOs       -> AO shells        33.0

Calculating integrals (0.1 sec, 2.050 MB)
Sorting integrals (0.0 sec, 2.047 MB)
Total time for the integral transformation: 0.1 sec
--------------------------------
INITIAL GUESS AND PNO GENERATION
--------------------------------

Populations of internal orbitals onto Fragments:
  15:      1.002    0.000    0.002  assigned to fragment   1
  16:      1.003    0.001    0.002  assigned to fragment   1
  17:      1.002    0.000    0.002  assigned to fragment   1
  18:      1.002    0.000    0.002  assigned to fragment   1
  19:      0.000    1.000    0.000  assigned to fragment   2
  20:      0.001    1.001    0.000  assigned to fragment   2
  21:      0.000    1.000    0.000  assigned to fragment   2
  22:      0.000    1.000    0.000  assigned to fragment   2
  23:      0.002    0.000    1.002  assigned to fragment   3
  24:      0.002    0.000    1.002  assigned to fragment   3
  25:      0.002    0.000    1.002  assigned to fragment   3
  26:      0.002    0.000    1.002  assigned to fragment   3

Summary assignment:
   4 orbitals assigned to fragment   1
   4 orbitals assigned to fragment   2
   4 orbitals assigned to fragment   3

PNO truncation parameters                   .... 
    PAOOverlapThresh   =        1.000e-08

Pair selection                          .... 
  modified with fragment specific keywords
  Pairs will be selected according to these
  intra(inter)fragment cutoffs
  1 <-> 1
    Intrafragment pairs 1 <-> 1 neglected for CCSD
  1 <-> 2
    TCutPairs          =        1.000e-05
    TCutPNO            =        3.330e-07
    TCutMKN            =        1.000e-03
    TCutDO             =        1.000e-02
    TCutPNOSingles     =        9.990e-09
    TCutMP2Pairs       =        1.000e-06
  1 <-> 3
    TCutPairs          =        1.000e-05
    TCutPNO            =        3.330e-07
    TCutMKN            =        1.000e-03
    TCutDO             =        1.000e-02
    TCutPNOSingles     =        9.990e-09
    TCutMP2Pairs       =        1.000e-06
  2 <-> 2
    Intrafragment pairs 2 <-> 2 neglected for CCSD
  2 <-> 3
    TCutPairs          =        1.000e-05
    TCutPNO            =        3.330e-07
    TCutMKN            =        1.000e-03
    TCutDO             =        1.000e-02
    TCutPNOSingles     =        9.990e-09
    TCutMP2Pairs       =        1.000e-06
  3 <-> 3
    Intrafragment pairs 3 <-> 3 neglected for CCSD

Type of local MP2 treatment                 .... semi-local MP2
Strategy for PNO selection                  .... occupation number selection
Pair density normalization                  .... MP2 norm
Spin component scaling                      .... not used

   .... Finished loop over pairs

 PNO Occupation Number Statistics: 
  | Av. % of trace(Dij) retained        ...  98.733321555605
  | sigma^2 in % of trace(Dij) retained ...   1.76e-01
  | Av. % of trace(Di) retained         ...  99.999862428383
  | sigma^2 in % of trace(Di) retained  ...   3.44e-09
 Distributions of % trace(Dij) recovered:
  |   [90.0, 99.0) ...    23 ( 67.6 % of all pairs)
  |   [99.0, 99.9) ...    11 ( 32.4 % of all pairs)
 Distributions of % trace(Di) recovered :
  |       >= 99.9  ...    12 (100.0 % of all I-pairs )

Making pair pair interaction lists          ... done

                       ===========================
                         34 OF   60 PAIRS ARE KEPT
                       ===========================

Total time spent in the initial guess                 ...     0.127 sec
SL-MP2 correlation energy (all non-screened pairs)    ...      -0.005207106532 Eh

Initial PNO correlation energy                        ...      -0.004995151226 Eh
sum of pair energies estimated for screened out pairs ...       0.000000000000 Eh
sum of MP2 pair energies for pairs that were not kept ...      -0.000098298707 Eh
sum of PNO error estimates for the kept pairs         ...      -0.000113656599 Eh
                                                          --------------------
sum of all corrections                                         -0.000211955306
Initial total correlation energy                               -0.005207106532
Thresholds for map construction and integral transformation for fine MP2 and CCSD(T) calculation:
   TCutMKN   ...     1.0e-03
   TCutDO    ...     1.0e-02
   TCutPairs ...     1.0e-05
   TCutCMO   ...     1.0e-03
   TCutCPAO  ...     1.0e-03

Time for aux screen maps:            0.000
Time for maps after fine MP2:            0.000
-----------------------------
LOCAL RI TRANSFORMATION (IJV)
-----------------------------

Orbital window:      15 to 26
Basis functions:     81 (33 shells)
Aux. functions:     276 (84 shells)
Use SHARK:           on

Processing maps (0.0 sec)
Average map sizes:
   Aux shells -> MOs(i)           11.0
   Aux shells -> MOs(j)           12.0
   MOs        -> AO shells        30.2

Calculating integrals NOTE: Switching SHARK to General Contraction for MDCI
      If that is not desired please turn off the PGCFlag in the input (%shark PGCFlag 0 end)
(1.2 sec, 0.281 MB)
Sorting integrals (0.0 sec, 0.278 MB)
Total time for the integral transformation: 1.2 sec
--------------------------------
LOCAL RI TRANSFORMATION (VABPAO)
--------------------------------

Number of PAOs:      81
Basis functions:     81 (33 shells)
Aux. functions:     276 (84 shells)
Use SHARK:           on

Processing maps (0.0 sec)
Average map sizes:
   Aux shells -> PAOs             81.0
   PAOs       -> AO shells        33.0

Calculating integrals NOTE: Switching SHARK to General Contraction for MDCI
      If that is not desired please turn off the PGCFlag in the input (%shark PGCFlag 0 end)
(1.3 sec, 13.819 MB)
Finished


-------------------------------------
Pair Pair Term precalculation with     
RI-(ij|mn) and (im|jn) transformation  
ON THE FLY                             
-------------------------------------

   IBatch   1 (of   1)              ... done (    0.259 sec)
Total EXT                           ...           0.259 sec

IAVPA Available = YES
VABPAO Available= YES
IJV Available   = YES
IJK Available   = NO
PNO3i Available = YES
PNO3j Available = YES
PNO4 Available  = YES
---------------------
RI-PNO TRANSFORMATION
---------------------

Total Number of PNOs                   ...   332
Average number of PNOs per pair        ...     9
Maximal number of PNOs per pair        ...    13
   #pairs with  1 -  5 PNOs   :    0
   #pairs with  6 - 10 PNOs   :   22
   #pairs with 11 - 15 PNOs   :   12
   #pairs with 16 - 20 PNOs   :    0
   #pairs with 21 - 25 PNOs   :    0
   #pairs with 26 - 30 PNOs   :    0
   #pairs with 31 - 35 PNOs   :    0
   #pairs with 36 - 40 PNOs   :    0
   #pairs with 41 - 45 PNOs   :    0
   #pairs with 46 - 50 PNOs   :    0

Generation of (ij|ab)[P] integrals            ... on
Generation of (ia|bc)[P],(ja|bc)[P] integrals ... on
Storage of 3 and 4 external integrals         ... on
Generation of ALL (ka|bc)[P] integrals        ... on
Keep RI integrals in memory                   ... off

Ibatch:  1 (of  1)
Starting 2-4 index PNO integral generation ... done

Timings:
Total PNO integral transformation time     ...          0.422 sec
Size of the 3-external file                ...         0 MB
Size of the 4-external file                ...         0 MB
Size of the IKJL file                      ...         0 MB
Size of the all 3-external file            ...         1 MB
Size of the 1-external file                ...         0 MB

Making pair/pair overlap matrices          ... done (    0.067 sec)
Size of the pair overlap file              ... 1 MB
Redoing the guess amplitudes               ... done (    0.000 sec)

-------------------------
FINAL STARTUP INFORMATION
-------------------------

E(0)                                       ...  -1580.386867419
E(SL-MP2)                                  ...     -0.005207107
E(SL-MP2) including corrections            ...     -0.005207107
Initial E(tot)                             ...  -1580.392074526
<T|T>                                      ...      0.001833281
Number of pairs included                   ... 34
Total number of pairs                      ... 78

------------------------------------------------
                  RHF COUPLED CLUSTER ITERATIONS
------------------------------------------------

Number of PNO amplitudes to be optimized   ...         3364
Number of non-PNO amplitudes               ...        99144
Untruncated number of regular amplitudes   ...       227448

Iter       E(tot)           E(Corr)          Delta-E          Residual     Time
  0  -1580.392074181     -0.004994806      0.000212300      0.000796291    0.09
                           *** Turning on DIIS ***
  1  -1580.392006621     -0.004927246      0.000067560      0.000186183    0.07
  2  -1580.392044092     -0.004964718     -0.000037472      0.000052558    0.07
  3  -1580.392048553     -0.004969178     -0.000004461      0.000010812    0.06
  4  -1580.392049088     -0.004969713     -0.000000535      0.000002080    0.06
  5  -1580.392049068     -0.004969693      0.000000020      0.000000447    0.08
               --- The Coupled-Cluster iterations have converged ---

----------------------
COUPLED CLUSTER ENERGY
----------------------

E(0)                                       ...  -1580.386867419
E(CORR)(strong-pairs)                      ...     -0.004969693
E(CORR)(weak-pairs)                        ...     -0.000211955
E(CORR)(corrected)                         ...     -0.005181648
E(TOT)                                     ...  -1580.392049068
Singles Norm <S|S>**1/2                    ...      0.002041340  
T1 diagnostic                              ...      0.000416687  

------------------
LARGEST AMPLITUDES
------------------
  24-> 29  16-> 29       0.002012
  23-> 27  15-> 27       0.001945
  26-> 28  17-> 28       0.001849
  20-> 27  16-> 27       0.001833
  23-> 27  15-> 30       0.001658
  25-> 28  18-> 28       0.001657
  24-> 29  16-> 32       0.001652
  23-> 30  15-> 27       0.001587
  24-> 27  15-> 31       0.001575
  26-> 27  15-> 31       0.001543
  24-> 32  16-> 29       0.001501
  26-> 32  17-> 28       0.001495
  23-> 31  18-> 27       0.001474
  26-> 28  17-> 32       0.001470
  23-> 31  17-> 27       0.001465
  25-> 27  15-> 31       0.001465


 ===========================================================
         LOCAL ENERGY DECOMPOSITION FOR DLPNO-CC METHODS
 ===========================================================

Maximum Iterations for the Localization .. 600
Tolerance for the Localization          ..  1.00e-06
Number of fragments = 3
Fragment  1:  0
Fragment  2:  1
Fragment  3:  2

Populations of internal orbitals onto Fragments:
   0:      1.000    0.000    0.000  assigned to fragment   1
   1:      1.000    0.000    0.000  assigned to fragment   1
   2:      1.000    0.000    0.000  assigned to fragment   1
   3:      1.000    0.000    0.000  assigned to fragment   1
   4:      1.000    0.000    0.000  assigned to fragment   1
   5:      0.000    1.000    0.000  assigned to fragment   2
   6:      0.000    1.000    0.000  assigned to fragment   2
   7:      0.000    1.000    0.000  assigned to fragment   2
   8:      0.000    1.000    0.000  assigned to fragment   2
   9:      0.000    1.000    0.000  assigned to fragment   2
  10:      0.000    0.000    1.000  assigned to fragment   3
  11:      0.000    0.000    1.000  assigned to fragment   3
  12:      0.000    0.000    1.000  assigned to fragment   3
  13:      0.000    0.000    1.000  assigned to fragment   3
  14:      0.000    0.000    1.000  assigned to fragment   3
  15:      1.002    0.000    0.002  assigned to fragment   1
  16:      1.003    0.001    0.002  assigned to fragment   1
  17:      1.002    0.000    0.002  assigned to fragment   1
  18:      1.002    0.000    0.002  assigned to fragment   1
  19:      0.000    1.000    0.000  assigned to fragment   2
  20:      0.001    1.001    0.000  assigned to fragment   2
  21:      0.000    1.000    0.000  assigned to fragment   2
  22:      0.000    1.000    0.000  assigned to fragment   2
  23:      0.002    0.000    1.002  assigned to fragment   3
  24:      0.002    0.000    1.002  assigned to fragment   3
  25:      0.002    0.000    1.002  assigned to fragment   3
  26:      0.002    0.000    1.002  assigned to fragment   3

Summary assignment:
   9 orbitals assigned to fragment   1
   9 orbitals assigned to fragment   2
   9 orbitals assigned to fragment   3


--------------------------------
CORRELATION ENERGY DECOMPOSITION
--------------------------------


--------------------------------------------------
INTER- vs INTRA-FRAGMENT CORRELATION ENERGIES (Eh)
--------------------------------------------------

                                   Fragment   1            Fragment   2            Fragment   3            
                         ----------------------  ----------------------  ----------------------  
Intra strong pairs               0.000000000000         0.000000000000         0.000000000000  sum=        0.000000000000
Intra weak pairs                 0.000000000000         0.000000000000         0.000000000000  sum=        0.000000000000
Singles contribution            -0.000000000395         0.000000000035        -0.000000000325  sum=       -0.000000000686
                         ----------------------  ----------------------  ----------------------  
                                -0.000000000395         0.000000000035        -0.000000000325  sum=       -0.000000000686


Interaction correlation for Fragments   2 and   1:
--------------------------------------------------
Inter strong pairs               -0.001598666290 (   -1.003 kcal/mol)
Inter weak pairs                 -0.000046359659 (   -0.029 kcal/mol)
                          ----------------------
Total interaction                -0.001645025949 (   -1.032 kcal/mol)

Interaction correlation for Fragments   3 and   1:
--------------------------------------------------
Inter strong pairs               -0.003346314917 (   -2.100 kcal/mol)
Inter weak pairs                 -0.000067201281 (   -0.042 kcal/mol)
                          ----------------------
Total interaction                -0.003413516198 (   -2.142 kcal/mol)
Interaction correlation for Fragments   3 and   2:
--------------------------------------------------
Inter strong pairs               -0.000024711277 (   -0.016 kcal/mol)
Inter weak pairs                 -0.000098394366 (   -0.062 kcal/mol)
                          ----------------------
Total interaction                -0.000123105643 (   -0.077 kcal/mol)



Sum of INTRA-fragment correlation energies  =        -0.000000000686
Sum of INTER-fragment correlation energies  =        -0.005181647790
                                              ---------------------
Total correlation energy                    =        -0.005181648476

---------------------------------------------
DECOMPOSITION OF CCSD STRONG PAIRS INTO      
    DOUBLE EXCITATION TYPES (Eh)             
---------------------------------------------

Foster-Boys localization is used for localizing PNOs

Intra fragment contributions: 
INTRA Fragment 1                        0.000000000 
INTRA Fragment 2                        0.000000000 
INTRA Fragment 3                        0.000000000 

Charge transfer contributions: 
Charge Transfer 1 to 2                 -0.000090488 
Charge Transfer 1 to 3                 -0.000373618 
Charge Transfer 2 to 1                 -0.000091402 
Charge Transfer 2 to 3                 -0.000000014 
Charge Transfer 3 to 1                 -0.000315964 
Charge Transfer 3 to 2                 -0.000000010 

Dispersion contributions: 
Dispersion  2,1                        -0.001416776 
Dispersion  3,1                        -0.002656733 
Dispersion  3,2                        -0.000024687 

Singles contributions:                   
Singles energy                         -0.000000001 
 
Delocalized contributions: 
Delocalized correlation                 0.000000000 

#Time for LED analysis ..       0.0 (sec)



--------------------------------------------------------------------------------
                                    TIMINGS
--------------------------------------------------------------------------------


Total execution time                   ...        5.452 sec

Localization of occupied MO's          ...        0.089 sec (  1.6%)
Fock Matrix Formation                  ...        0.840 sec ( 15.4%)
Global overlap, Fock, MKN matrices     ...        0.097 sec (  1.8%)
Differential overlap integrals         ...        0.151 sec (  2.8%)
Organizing maps                        ...        0.001 sec (  0.0%)
RI 3-index integral generations        ...        2.638 sec ( 48.4%)
RI-PNO integral transformation         ...        0.755 sec ( 13.9%)
Initial Guess                          ...        0.234 sec (  4.3%)
DIIS Solver                            ...        0.006 sec (  0.1%)
State Vector Update                    ...        0.000 sec (  0.0%)
Sigma-vector construction              ...        0.406 sec (  7.4%)
  <D|H|D>(0-ext)                       ...        0.048 sec ( 11.9% of sigma)
  <D|H|D>(2-ext Fock)                  ...        0.001 sec (  0.2% of sigma)
  <D|H|D>(2-ext)                       ...        0.024 sec (  6.0% of sigma)
  <D|H|D>(4-ext)                       ...        0.010 sec (  2.5% of sigma)
  <D|H|D>(4-ext-corr)                  ...        0.036 sec (  8.9% of sigma)
  CCSD doubles correction              ...        0.010 sec (  2.5% of sigma)
  <S|H|S>                              ...        0.039 sec (  9.7% of sigma)
  <S|H|D>(1-ext)                       ...        0.030 sec (  7.3% of sigma)
  <D|H|S>(1-ext)                       ...        0.001 sec (  0.3% of sigma)
  <S|H|D>(3-ext)                       ...        0.005 sec (  1.3% of sigma)
  Fock-dressing                        ...        0.141 sec ( 34.8% of sigma)
  Singles amplitudes                   ...        0.008 sec (  1.9% of sigma)
  (ik|jl)-dressing                     ...        0.030 sec (  7.3% of sigma)
  (ij|ab),(ia|jb)-dressing             ...        0.015 sec (  3.7% of sigma)
Local Energy Decomposition             ...        0.042 sec (  0.8% of ALL)


Maximum memory used throughout the entire MDCI-calculation: 56.8 MB
----------------------------   ----------------
Inter-fragment dispersion       -0.004310152
----------------------------   ----------------


-------------------------   --------------------
FINAL SINGLE POINT ENERGY     -1580.391177570980 
-------------------------   --------------------


------------------------------------------------------------------------------
                              ORCA PROPERTY CALCULATIONS
------------------------------------------------------------------------------

GBWName                                 ... AR3LD_4.8_2.8_3.2.gbw
Number of atoms                         ...      3
Number of basis functions               ...    150
Max core memory                         ...   1024 MB

Electric properties:
Dipole moment                           ... YES
Quadrupole moment                       ...  NO
Static polarizability (Dipole/Dipole)   ...  NO
Static polarizability (Dipole/Quad.)    ...  NO
Static polarizability (Quad./Quad.)     ...  NO
Static polarizability (Velocity)        ...  NO

Atomic electric properties:
Dipole moment                           ...  NO
Quadrupole moment                       ...  NO
Static polarizability                   ...  NO

Choice of electric origin               ... Center of mass
Position of electric origin             ...     1.527529     1.694838     0.000000

General magnetic properties:
Magnetizability                         ...  NO

EPR properties:
g-Tensor (aka g-matrix)                 ...  NO
Zero-Field splitting spin-orbit         ...  NO
Zero-field splitting spin-spin          ...  NO
Hyperfine couplings                     ...  NO (   0 nuclei)
Quadrupole couplings                    ...  NO (   0 nuclei)
Contact density                         ...  NO (   0 nuclei)

NMR properties:
Chemical shifts                         ...  NO (   0 nuclei)
Spin-rotation constants                 ...  NO (   0 nuclei)
Spin-spin couplings                     ...  NO (   0 nuclei,    0 pairs)

Choice of magnetic origin               ... GIAO
Position of magnetic origin             ...     0.000000     0.000000     0.000000

Properties with geometric perturbations:
SCF Hessian                             ...  NO
IR spectrum                             ...  NO
VCD spectrum                            ...  NO
X-ray spectroscopy properties:
SCF XES/XAS/RIXS spectra                ...  NO


-------------
DIPOLE MOMENT
-------------

Method             : SCF
Type of density    : Electron Density
Multiplicity       :   1
Irrep              :   0
Energy             : -1580.3868674192599428 Eh
Relativity type    : 
Basis              : AO
                                X                 Y                 Z
Electronic contribution:     -0.000852666      -0.002057647      -0.000000000
Nuclear contribution   :     -0.000000000      -0.000000000       0.000000000
                        -----------------------------------------
Total Dipole Moment    :     -0.000852666      -0.002057647      -0.000000000
                        -----------------------------------------
Magnitude (a.u.)       :      0.002227319
Magnitude (Debye)      :      0.005661396



--------------------
Rotational spectrum 
--------------------
 
Rotational constants in cm-1:             0.197605             0.036469             0.030787 
Rotational constants in MHz :          5924.057234          1093.317008           922.976644 

Dipole components along the rotational axes: 
x,y,z [a.u.] :    -0.000378    -0.002195    -0.000000 
x,y,z [Debye]:    -0.000961    -0.005579    -0.000000 

 

Dipole moment calculation done in   0.0 sec 

Maximum memory used throughout the entire PROP-calculation: 6.8 MB

--------------------------------
SUGGESTED CITATIONS FOR THIS RUN
--------------------------------

Below you find a list of papers that are relevant to this ORCA run
We neither can nor want to force you to cite these papers, but we appreciate if you do
You receive ORCA, which is the product of decades of hard work by many enthusiastic individuals, for free
The only thing we kindly ask in return is that you cite our papers,
We deeply appreciate it, if you show your appreciation for ORCA by not just citing the generic ORCA reference.

Please note that relegating all ORCA citations to the supporting information does *not* help us.
SI sections are not indexed - citations you put there will not count into any citation statistics
But we need these citations in order to attract the funding resources that allow us to do what we are doing

Therefore, if you are a happy ORCA user, please consider citing a few of the papers listed below in the main body of your paper

In addition to the list printed below, the program has created the file AR3LD_4.8_2.8_3.2.bibtex that contains the list in bibtex format
You can import this file easily into all common literature databanks and citation aid programs


List of essential papers. We consider these as the minimum necessary citations

  1. Neese,F.
     Software update: the ORCA program system, version 5.0
     WIRES Comput. Molec. Sci., 2022 12(1)e1606
     doi.org/10.1002/wcms.1606

List of papers to cite with high priority. The work reported in these papers was absolutely
necessary for this run to complete.
Our perspective: the developers of density functionals and basis sets usually get cited in chemistry papers
Good! But without the algorithms to do something with them, the functionals or basis sets would not do anything.
Hence, in our opinion, the algorithm design and method developments papers are equally worthy of getting cited

  1. Neese,F.; Hansen,A.; Liakos,D.G.
     Efficient and accurate approximations to the local coupled cluster singles doubles method using a truncated pair natural orbital basis
     J. Chem. Phys., 2009 131 064103
     doi.org/10.1063/1.3173827
  2. Neese,F.; Wennmohs,F.; Hansen,A.
     Efficient and accurate local approximations to coupled-electron pair approaches: An attempt to revive the pair natural orbital method
     J. Chem. Phys., 2009 130 114108
     doi.org/10.1063/1.3086717
  3. Riplinger,C.; Neese,F.
     An efficient and near linear scaling pair natural orbital based local coupled cluster method
     J. Chem. Phys., 2013 138(3)Art. No. 034106
     doi.org/10.1063/1.4773581
  4. Datta,D.; Kossmann,S.; Neese,F.
     Analytic energy derivatives for the calculation of the first-order molecular properties using the domain-based local pair-natural orbital coupled-cluster theory
     J. Chem. Phys., 2016 145 
     doi.org/10.1063/1.4962369
  5. Riplinger,C.; Pinski,P.; Becker,U.; Valeev,E.F.; Neese,F.
     Sparse maps-A systematic infrastructure for reduced-scaling electronic structure methods. II. Linear scaling domain based pair natural orbital coupled cluster theory
     J. Chem. Phys., 2016 144 
     doi.org/10.1063/1.4939030
  6. Schneider,W.B.; Bistoni,G.; Sparta,M.; Saitow,M.; Riplinger,C.; Auer,A.A.; Neese,F.
     Decomposition of Intermolecular Interaction Energies within the Local Pair Natural Orbital Coupled Cluster Framework
     J. Theo. Comp. Chem., 2016 12 4778-4792
     doi.org/10.1021/acs.jctc.6b00523
  7. Bistoni,G.; Riplinger,C.; Minenkov,Y.; Cavallo,L.; Auer,A.A.; Neese,F.
     Treating Subvalence Correlation Effects in Domain Based Pair Natural Orbital Coupled Cluster Calculations: An Out-of-the-Box Approach
     J. Theo. Comp. Chem., 2017 13 3220-3227
     doi.org/10.1021/acs.jctc.7b00352
  8. Altun,A.; Neese,F.; Bistoni,G.
     HFLD: A Nonempirical London Dispersion-Corrected Hartree-Fock Method for the Quantification and Analysis of Noncovalent Interaction Energies of Large Molecular Systems
     J. Chem. Theory Comput., 2019 15 5894-5907
     doi.org/10.1021/acs.jctc.9b00425
  9. Neese,F.
     The SHARK Integral Generation and Digestion System
     J. Comp. Chem., 2022  1-16
     doi.org/10.1002/jcc.26942
 10. Altun,A.; Neese,F.; Bistoni,G.
     Open-Shell Variant of the London Dispersion-Corrected Hartree–Fock Method (HFLD) for the Quantification and Analysis of Noncovalent Interaction Energies
     J. Chem. Theory Comput., 2022 XX XXXX-XXXX
     doi.org/10.1021/acs.jctc.1c01295

List of suggested additional citations. These are papers that are important in the 'surrounding' of 
of this run, or papers that preceded the highly important papers. If you like your results we are grateful for a citation.

  1. Neese,F.
     The ORCA program system
     WIRES Comput. Molec. Sci., 2012 2(1)73-78
     doi.org/10.1002/wcms.81
  2. Neese,F.
     Software update: the ORCA program system, version 4.0
     WIRES Comput. Molec. Sci., 2018 8(1)1-6
     doi.org/10.1002/wcms.1327
  3. Neese,F.; Wennmohs,F.; Becker,U.; Riplinger,C.
     The ORCA quantum chemistry program package
     J. Chem. Phys., 2020 152 Art. No. L224108
     doi.org/10.1063/5.0004608
  4. Bistoni,G.
     Finding chemical concepts in the Hilbert space: Coupled cluster analyses of noncovalent interactions
     WIRES Comput. Molec. Sci., 2020 10(3)e1442
     doi.org/10.1002/wcms.1442

List of optional additional citations

  1. Neese,F.
     Approximate second-order SCF convergence for spin unrestricted wavefunctions
     Chem. Phys. Lett., 2000 325(1-3)93-98
     doi.org/10.1016/s0009-2614(00)00662-x

Timings for individual modules:

Sum of individual times          ...       12.774 sec (=   0.213 min)
Startup calculation              ...        1.266 sec (=   0.021 min)   9.9 %
SCF iterations                   ...        5.815 sec (=   0.097 min)  45.5 %
Property integrals               ...        0.037 sec (=   0.001 min)   0.3 %
Property calculations            ...        0.172 sec (=   0.003 min)   1.3 %
MDCI module                      ...        5.485 sec (=   0.091 min)  42.9 %
                             ****ORCA TERMINATED NORMALLY****
TOTAL RUN TIME: 0 days 0 hours 0 minutes 12 seconds 863 msec
