
                                 *****************
                                 * O   R   C   A *
                                 *****************

                                            #,                                       
                                            ###                                      
                                            ####                                     
                                            #####                                    
                                            ######                                   
                                           ########,                                 
                                     ,,################,,,,,                         
                               ,,#################################,,                 
                          ,,##########################################,,             
                       ,#########################################, ''#####,          
                    ,#############################################,,   '####,        
                  ,##################################################,,,,####,       
                ,###########''''           ''''###############################       
              ,#####''   ,,,,##########,,,,          '''####'''          '####       
            ,##' ,,,,###########################,,,                        '##       
           ' ,,###''''                  '''############,,,                           
         ,,##''                                '''############,,,,        ,,,,,,###''
      ,#''                                            '''#######################'''  
     '                                                          ''''####''''         
             ,#######,   #######,   ,#######,      ##                                
            ,#'     '#,  ##    ##  ,#'     '#,    #''#        ,####,   ,####,        
            ##       ##  ##   ,#'  ##            #'  '#       #'       #'  '#        
            ##       ##  #######   ##           ,######,      #####,   #    #        
            '#,     ,#'  ##    ##  '#,     ,#' ,#      #,     #,   #   #,  ,#        
             '#######'   ##     ##  '#######'  #'      '#     '####' # '####'        



                #########################################################
                #                        -***-                          #
                #          Department of theory and spectroscopy        #
                #                                                       #
                #                      Frank Neese                      #
                #                                                       #
                #     Directorship, Architecture, Infrastructure        #
                #                    SHARK, DRIVERS                     #
                #        Core code/Algorithms in most modules           #
                #                                                       #
                #        Max Planck Institute fuer Kohlenforschung      #
                #                Kaiser Wilhelm Platz 1                 #
                #                 D-45470 Muelheim/Ruhr                 #
                #                      Germany                          #
                #                                                       #
                #                  All rights reserved                  #
                #                        -***-                          #
                #########################################################


                         Program Version 6.0.0  -   RELEASE  -


 With contributions from (in alphabetic order):
   Daniel Aravena         : Magnetic Suceptibility
   Michael Atanasov       : Ab Initio Ligand Field Theory (pilot matlab implementation)
   Alexander A. Auer      : GIAO ZORA, VPT2 properties, NMR spectrum
   Ute Becker             : All parallelization in ORCA, NUMFREQ, NUMCALC
   Giovanni Bistoni       : ED, misc. LED, open-shell LED, HFLD
   Martin Brehm           : Molecular dynamics
   Dmytro Bykov           : pre 5.0 version of the SCF Hessian
   Marcos Casanova-Páez   : Triplet and SCS-CIS(D). UHF-(DLPNO)-IP/EA/STEOM-CCSD. UHF-CVS-IP/STEOM-CCSD
   Vijay G. Chilkuri      : MRCI spin determinant printing, contributions to CSF-ICE
   Pauline Colinet        : FMM embedding
   Dipayan Datta          : RHF DLPNO-CCSD density
   Achintya Kumar Dutta   : EOM-CC, STEOM-CC
   Nicolas Foglia         : Exact transition moments, OPA infrastructure, MCD improvements
   Dmitry Ganyushin       : Spin-Orbit,Spin-Spin,Magnetic field MRCI
   Miquel Garcia          : C-PCM and meta-GGA Hessian, CCSD/C-PCM, Gaussian charge scheme
   Tiago L. C. Gouveia    : GS-ROHF, GS-ROCIS
   Yang Guo               : DLPNO-NEVPT2, F12-NEVPT2, CIM, IAO-localization
   Andreas Hansen         : Spin unrestricted coupled pair/coupled cluster methods
   Ingolf Harden          : AUTO-CI MPn and infrastructure 
   Benjamin Helmich-Paris : MC-RPA, TRAH-(SCF,CASSCF), AVAS, COSX integrals, SCF dyn. polar.
   Lee Huntington         : MR-EOM, pCC
   Robert Izsak           : Overlap fitted RIJCOSX, COSX-SCS-MP3, EOM
   Riya Kayal             : Wick's Theorem for AUTO-CI, AUTO-CI UHF-CCSDT
   Emily Kempfer          : AUTO-CI, RHF CISDT and CCSDT
   Christian Kollmar      : KDIIS, OOCD, Brueckner-CCSD(T), CCSD density, CASPT2, CASPT2-K, improved NEVPT2
   Axel Koslowski         : Symmetry handling
   Simone Kossmann        : Meta GGA functionals, TD-DFT gradient, OOMP2, (MP2 Hessian; deprecated post 5.0)
   Lucas Lang             : DCDCAS
   Marvin Lechner         : AUTO-CI (C++ implementation), FIC-MRCC
   Spencer Leger          : CASSCF response
   Dagmar Lenk            : GEPOL surface, SMD, ORCA-2-JSON
   Dimitrios Liakos       : Extrapolation schemes; Compound Job, initial MDCI parallelization
   Dimitrios Manganas     : Further ROCIS development; embedding schemes. LFT, Crystal Embedding
   Dimitrios Pantazis     : SARC Basis sets
   Anastasios Papadopoulos: AUTO-CI, single reference methods and gradients
   Taras Petrenko         : pre 6.0 DFT Hessian and TD-DFT gradient, (ASA, deprecated), ECA, 1-Electron XAS/XES, NRVS
   Peter Pinski           : DLPNO-MP2, DLPNO-MP2 Gradient
   Christoph Reimann      : Effective Core Potentials
   Marius Retegan         : Local ZFS, SOC
   Christoph Riplinger    : Optimizer, TS searches, QM/MM, DLPNO-CCSD(T), (RO)-DLPNO pert. Triples
   Michael Roemelt        : Original ROCIS implementation
   Masaaki Saitow         : Open-shell DLPNO-CCSD energy and density
   Barbara Sandhoefer     : DKH picture change effects
   Kantharuban Sivalingam : CASSCF convergence/infrastructure, NEVPT2 and variants, FIC-MRCI
   Bernardo de Souza      : ESD, SOC TD-DFT
   Georgi Stoychev        : AutoAux, RI-MP2 NMR, DLPNO-MP2 response, X2C
   Van Anh Tran           : RI-MP2 g-tensors
   Willem Van den Heuvel  : Paramagnetic NMR
   Zikuan Wang            : NOTCH, Electric field optimization 
   Frank Wennmohs         : Technical directorship and infrastructure
   Hang Xu                : AUTO-CI-Response properties 


 We gratefully acknowledge several colleagues who have allowed us to
 interface, adapt or use parts of their codes:
   Stefan Grimme, W. Hujo, H. Kruse, P. Pracht,  : VdW corrections, initial TS optimization,
                  C. Bannwarth, S. Ehlert,         DFT functionals, gCP, sTDA/sTD-DF
                  L. Wittmann, M. Mueller
   Ed Valeev, F. Pavosevic, A. Kumar             : LibInt (2-el integral package), F12 methods
   Garnet Chan, S. Sharma, J. Yang, R. Olivares  : DMRG
   Ulf Ekstrom                                   : XCFun DFT Library
   Mihaly Kallay                                 : mrcc  (arbitrary order and MRCC methods)
   Frank Weinhold                                : gennbo (NPA and NBO analysis)
   Simon Mueller                                 : openCOSMO-RS
   Christopher J. Cramer and Donald G. Truhlar   : smd solvation model
   Lars Goerigk                                  : TD-DFT with DH, B97 family of functionals
   V. Asgeirsson, H. Jonsson                     : NEB implementation
   FAccTs GmbH                                   : IRC, NEB, NEB-TS, DLPNO-Multilevel, CI-OPT
                                                   MM, QMMM, 2- and 3-layer-ONIOM, Crystal-QMMM,
                                                   LR-CPCM, SF, NACMEs, symmetry and pop. for TD-DFT,
                                                   nearIR, NL-DFT gradient (VV10), updates on ESD,
                                                   ML-optimized integration grids, MBIS, APM,
                                                   GOAT, DOCKER, SOLVATOR, interface openCOSMO-RS
   S Lehtola, MJT Oliveira, MAL Marques          : LibXC Library
   Liviu Ungur et al                             : ANISO software


 Your calculation uses the libint2 library for the computation of 2-el integrals
 For citations please refer to: http://libint.valeyev.net

 Your ORCA version has been built with support for libXC version: 6.2.2
 For citations please refer to: https://libxc.gitlab.io

 This ORCA versions uses:
   CBLAS   interface :  Fast vector & matrix operations
   LAPACKE interface :  Fast linear algebra routines
   SCALAPACK package :  Parallel linear algebra routines
   Shared memory     :  Shared parallel matrices
   BLAS/LAPACK       :  OpenBLAS 0.3.27  USE64BITINT DYNAMIC_ARCH NO_AFFINITY Haswell SINGLE_THREADED
        Core in use  :  Haswell
   Copyright (c) 2011-2014, The OpenBLAS Project


================================================================================

----- Orbital basis set information -----
Your calculation utilizes the basis: aug-cc-pVDZ 
    H, B-Ne : Obtained from the ccRepo (grant-hill.group.shef.ac.uk/ccrepo) Feb. 2017
              R. A. Kendall, T. H. Dunning, Jr., R. J. Harrison, J. Chem. Phys. 96, 6796 (1992)
         He : Obtained from the ccRepo (grant-hill.group.shef.ac.uk/ccrepo) Feb. 2017
              D. E. Woon, T. H. Dunning, Jr., J. Chem. Phys. 100, 2975 (1994)
  Li-Be, Na : Obtained from the ccRepo (grant-hill.group.shef.ac.uk/ccrepo) Feb. 2017
              B. P. Prascher, D. E. Woon, K. A. Peterson, T. H. Dunning, Jr., A. K. Wilson, Theor. Chem. Acc. 128, 69 (2011)
         Mg : Obtained from the Peterson Research Group Website (tyr0.chem.wsu.edu/~kipeters) Feb. 2017
              B. P. Prascher, D. E. Woon, K. A. Peterson, T. H. Dunning, Jr., A. K. Wilson, Theor. Chem. Acc. 128, 69 (2011)
      Al-Ar : Obtained from the ccRepo (grant-hill.group.shef.ac.uk/ccrepo) Feb. 2017
              D. E. Woon, T. H. Dunning, Jr., J. Chem. Phys. 98, 1358 (1993)
      Sc-Zn : Obtained from the ccRepo (grant-hill.group.shef.ac.uk/ccrepo) Feb. 2017
              N. B. Balabanov, K. A. Peterson, J. Chem. Phys. 123, 064107 (2005)
              N. B. Balabanov, K. A. Peterson, J. Chem. Phys. 125, 074110 (2006)
      Ga-Kr : Obtained from the ccRepo (grant-hill.group.shef.ac.uk/ccrepo) Feb. 2017
              A. K. Wilson, D. E. Woon, K. A. Peterson, T. H. Dunning, Jr., J. Chem. Phys. 110, 7667 (1999)

----- AuxC basis set information -----
Your calculation utilizes the auxiliary basis: aug-cc-pVDZ/C 
  H-He, B, Ne, Al-Ar, Ga-Ge, Se-Br : Obtained from the EMSL Basis Set Exchange (bse.pnl.gov) Feb. 2017
                                     F. Weigend, A. Kohn, C. Hattig, J. Chem. Phys. 116, 3175 (2002)
                            Be, Mg : Obtained from the TURBOMOLE 7.0 basis set library
                                     C. Haettig, Phys. Chem. Chem. Phys. 7, 59 (2005)
                               C-F : Obtained from the EMSL Basis Set Exchange (bse.pnl.gov) Feb. 2017
                                     C. Haettig, Phys. Chem. Chem. Phys. 7, 59 (2005)
                                     F. Weigend, A. Kohn, C. Hattig, J. Chem. Phys. 116, 3175 (2002)
                                As : Obtained from the EMSL Basis Set Exchange (bse.pnl.gov) Feb. 2017
                                     C. Haettig, G. Schmitz, J. Kossmann, Phys. Chem. Chem. Phys. 14, 6549 (2012)
                                Kr : Obtained from the TURBOMOLE 7.0 basis set library
                                     F. Weigend, A. Kohn, C. Hattig, J. Chem. Phys. 116, 3175 (2002)
                                     S function revised in Sep. 2009

================================================================================
                                        WARNINGS
                       Please study these warnings very carefully!
================================================================================


WARNING: Post HF methods need fully converged wavefunctions
  ===> : Setting SCFConvForced true
         You can overwrite this default with %scf ConvForced false 


================================================================================
                                       INPUT FILE
================================================================================
NAME = AR3LD_3.2_3.2_4.8.inp
|  1> # MP2 scan of the potential energy curve for Ar...Ar
|  2>                 ! HFLD aug-cc-pvdz aug-cc-pvdz/C verytightscf
|  3>                 *xyz 0 1
|  4>                 Ar(1)	0    0	0.00000000000000
|  5>                 Ar(2)	4.8	0    0.00000000000000
|  6>                 Ar(3)	2.4	2.116601048851673    0.00000000000000
|  7>                 **                         ****END OF INPUT****
================================================================================

                       ****************************
                       * Single Point Calculation *
                       ****************************

---------------------------------
CARTESIAN COORDINATES (ANGSTROEM)
---------------------------------
  Ar     0.000000    0.000000    0.000000
  Ar     4.800000    0.000000    0.000000
  Ar     2.400000    2.116601    0.000000

----------------------------
CARTESIAN COORDINATES (A.U.)
----------------------------
  NO LB      ZA    FRAG     MASS         X           Y           Z
   0 Ar   18.0000    1    39.948    0.000000    0.000000    0.000000
   1 Ar   18.0000    2    39.948    9.070685    0.000000    0.000000
   2 Ar   18.0000    3    39.948    4.535343    3.999796    0.000000

----------------------------------------------
CARTESIAN COORDINATES OF FRAGMENTS (ANGSTROEM)
----------------------------------------------

 FRAGMENT 1 
  Ar    0.000000    0.000000    0.000000

 FRAGMENT 2 
  Ar    4.800000    0.000000    0.000000

 FRAGMENT 3 
  Ar    2.400000    2.116601    0.000000

--------------------------------
INTERNAL COORDINATES (ANGSTROEM)
--------------------------------
 Ar     0   0   0     0.000000000000     0.00000000     0.00000000
 Ar     1   0   0     4.800000000000     0.00000000     0.00000000
 Ar     1   2   0     3.200000000000    41.40962211     0.00000000

---------------------------
INTERNAL COORDINATES (A.U.)
---------------------------
 Ar     0   0   0     0.000000000000     0.00000000     0.00000000
 Ar     1   0   0     9.070685442822     0.00000000     0.00000000
 Ar     1   2   0     6.047123628548    41.40962211     0.00000000

---------------------
BASIS SET INFORMATION
---------------------
There are 1 groups of distinct atoms

 Group   1 Type Ar  : 35s16p2d contracted to 5s4p2d pattern {11111111/7711/11}

Atom   0Ar   basis set group =>   1
Atom   1Ar   basis set group =>   1
Atom   2Ar   basis set group =>   1
---------------------------------
AUXILIARY/C BASIS SET INFORMATION
---------------------------------
There are 1 groups of distinct atoms

 Group   1 Type Ar  : 10s8p6d4f contracted to 10s8p6d4f pattern {1111111111/11111111/111111/1111}

Atom   0Ar   basis set group =>   1
Atom   1Ar   basis set group =>   1
Atom   2Ar   basis set group =>   1
------------------------------------------------------------------------------
                             ORCA STARTUP CALCULATIONS
------------------------------------------------------------------------------
------------------------------------------------------------------------------
                   ___                                                        
                  /   \      - P O W E R E D   B Y -                         
                 /     \                                                     
                 |  |  |   _    _      __       _____    __    __             
                 |  |  |  | |  | |    /  \     |  _  \  |  |  /  |          
                  \  \/   | |  | |   /    \    | | | |  |  | /  /          
                 / \  \   | |__| |  /  /\  \   | |_| |  |  |/  /          
                |  |  |   |  __  | /  /__\  \  |    /   |      \           
                |  |  |   | |  | | |   __   |  |    \   |  |\   \          
                \     /   | |  | | |  |  |  |  | |\  \  |  | \   \       
                 \___/    |_|  |_| |__|  |__|  |_| \__\ |__|  \__/        
                                                                              
                      - O R C A' S   B I G   F R I E N D -                    
                                      &                                       
                       - I N T E G R A L  F E E D E R -                       
                                                                              
 v1 FN, 2020, v2 2021, v3 2022-2024                                           
------------------------------------------------------------------------------


----------------------
SHARK INTEGRAL PACKAGE
----------------------

Number of atoms                             ...      3
Number of basis functions                   ...    150
Number of shells                            ...     72
Maximum angular momentum                    ...      2
Integral batch strategy                     ... SHARK/LIBINT Hybrid
RI-J (if used) integral strategy            ... SPLIT-RIJ (Revised 2003 algorithm where possible)
Printlevel                                  ...      1
Contraction scheme used                     ... PARTIAL GENERAL contraction
Prescreening option                         ... SCHWARTZ
   Thresh                                   ... 1.000e-12
   Tcut                                     ... 1.000e-14
   Tpresel                                  ... 1.000e-14 
Coulomb Range Separation                    ... NOT USED
Exchange Range Separation                   ... NOT USED
Multipole approximations                    ... NOT USED
Finite Nucleus Model                        ... NOT USED
CABS basis                                  ... NOT available
Auxiliary Coulomb fitting basis             ... NOT available
Auxiliary J/K fitting basis                 ... NOT available
Auxiliary Correlation fitting basis         ... AVAILABLE
   # of basis functions in Aux-C            ...    276
   # of shells in Aux-C                     ...     84
   Maximum angular momentum in Aux-C        ...      3
Auxiliary 'external' fitting basis          ... NOT available

Checking pre-screening integrals            ... done (  0.0 sec) Dimension = 72
Save PGC pre-screening integrals            ... done (  0.0 sec) Dimension = 72
Calculate PGC overlap integrals             ... done (  0.0 sec) Dimension = 33
Calculating pre-screening integrals (ORCA)  ... done (  0.2 sec) Dimension = 33
Check shell pair data                       ... done (  0.0 sec)
Shell pair information
Shell pair cut-off parameter TPreSel        ...   1.0e-14
Total number of shell pairs                 ...      2628
Shell pairs after pre-screening             ...      1768
Total number of primitive shell pairs       ...      2628
Primitive shell pairs kept                  ...      1766
          la=0 lb=0:    460 shell pairs
          la=1 lb=0:    661 shell pairs
          la=1 lb=1:    262 shell pairs
          la=2 lb=0:    214 shell pairs
          la=2 lb=1:    150 shell pairs
          la=2 lb=2:     21 shell pairs

Calculating one electron integrals          ... done (  0.0 sec)
Calculating RI/C V-Matrix + Cholesky decomp.... done (  0.0 sec)
Calculating Nuclear repulsion               ... done (  0.0 sec) ENN=    142.877846241000 Eh

Diagonalization of the overlap matrix:
Smallest eigenvalue                        ... 1.951e-02
Time for diagonalization                   ...    0.001 sec
Threshold for overlap eigenvalues          ... 1.000e-07
Number of eigenvalues below threshold      ... 0
Time for construction of square roots      ...    0.000 sec
Total time needed                          ...    0.002 sec

-------------------
DFT GRID GENERATION
-------------------

General Integration Accuracy     IntAcc      ... 4.388
Radial Grid Type                 RadialGrid  ... OptM3 with GC (2021)
Angular Grid (max. ang.)         AngularGrid ... 4 (Lebedev-302)
Angular grid pruning method      GridPruning ... 4 (adaptive)
Weight generation scheme         WeightScheme... mBecke (2022)
Basis function cutoff            BFCut       ... 1.0000e-12
Integration weight cutoff        WCut        ... 1.0000e-14
Partially contracted basis set               ... off
Rotationally invariant grid construction     ... off
Angular grids for H and He will be reduced by one unit

Total number of grid points                  ...    22080
Total number of batches                      ...      347
Average number of points per batch           ...       63
Average number of grid points per atom       ...     7360

---------------------
SHARK GRID GENERATION
---------------------

General Integration Accuracy     IntAcc      ... 4.388
Radial Grid Type                 RadialGrid  ... OptM3 with GC (2021)
Angular Grid (max. ang.)         AngularGrid ... 4 (Lebedev-302)
Angular grid pruning method      GridPruning ... 4 (adaptive)
Weight generation scheme         WeightScheme... mBecke (2022)
Basis function cutoff            BFCut       ... 1.0000e-12
Integration weight cutoff        WCut        ... 1.0000e-14
Partially contracted basis set               ... off
Rotationally invariant grid construction     ... off
Angular grids for H and He will be reduced by one unit
Core-polarized basis detected: some atoms will have their core
                               angular grid increased.
Steep s-basis detected: some atoms will have their radial
                        grid points doubled.

Total number of grid points                  ...    58014
Total number of batches                      ...      908
Average number of points per batch           ...       63
Average number of grid points per atom       ...    19338
Initializing property integral containers    ... done (  0.0 sec)

SHARK setup successfully completed in   2.0 seconds

Maximum memory used throughout the entire STARTUP-calculation: 27.5 MB
-------------------------------------------------------------------------------
                                 ORCA GUESS
                   Start orbitals & Density for SCF / CASSCF
-------------------------------------------------------------------------------

------------
SCF SETTINGS
------------
Hamiltonian:
 Ab initio Hamiltonian  Method          .... Hartree-Fock(GTOs)


General Settings:
 Integral files         IntName         .... AR3LD_3.2_3.2_4.8
 Hartree-Fock type      HFTyp           .... RHF
 Total Charge           Charge          ....    0
 Multiplicity           Mult            ....    1
 Number of Electrons    NEL             ....   54
 Basis Dimension        Dim             ....   81
 Nuclear Repulsion      ENuc            ....    142.8778462410 Eh

Convergence Acceleration:
 AO-DIIS                CNVDIIS         .... on
   Start iteration      DIISMaxIt       ....    12
   Startup error        DIISStart       ....  0.200000
   # of expansion vecs  DIISMaxEq       ....     5
   Bias factor          DIISBfac        ....   1.050
   Max. coefficient     DIISMaxC        ....  10.000
 MO-DIIS                CNVKDIIS        .... off
 Trust-Rad. Augm. Hess. CNVTRAH         .... auto
   Auto Start mean grad. ratio tolernc. ....  1.125000
   Auto Start start iteration           ....    50
   Auto Start num. interpolation iter.  ....    10
   Max. Number of Micro iterations      ....    24
   Max. Number of Macro iterations      .... Maxiter - #DIIS iter
   Number of Davidson start vectors     ....     2
   Converg. threshold    (grad. norm)   ....   2.000e-06
   Grad. Scal. Fac. for Micro threshold ....   0.100
   Minimum threshold for Micro iter.    ....   1.000e-02
   NR start threshold (gradient norm)   ....   1.000e-04
   Initial trust radius                 ....   0.400
   Minimum AH scaling param. (alpha)    ....   1.000
   Maximum AH scaling param. (alpha)    .... 1000.000
   Quad. conv. algorithm                .... NR
   White noise on init. David. guess    .... on
   Maximum white noise                  ....   0.010
   Pseudo random numbers                .... off
   Inactive MOs                         .... canonical
   Orbital update algorithm             .... Taylor
   Preconditioner                       .... Diag
   Full preconditioner red. dimension   ....   250
 SOSCF                  CNVSOSCF        .... on
   Start iteration      SOSCFMaxIt      ....   150
   Startup grad/error   SOSCFStart      ....  0.003300
   Hessian update       SOSCFHessUp     .... L-BFGS
 Level Shifting         CNVShift        .... on
   Level shift para.    LevelShift      ....    0.2500
   Turn off err/grad.   ShiftErr        ....    0.0010
 Zerner damping         CNVZerner       .... off
 Static damping         CNVDamp         .... on
   Fraction old density DampFac         ....    0.7000
   Max. Damping (<1)    DampMax         ....    0.9800
   Min. Damping (>=0)   DampMin         ....    0.0000
   Turn off err/grad.   DampErr         ....    0.1000

SCF Procedure:
 Maximum # iterations   MaxIter         ....   125
 SCF integral mode      SCFMode         .... Direct
   Integral package                     .... SHARK and LIBINT hybrid scheme
 Reset frequency        DirectResetFreq ....    20
 Integral Threshold     Thresh          ....  1.000e-12 Eh
 Primitive CutOff       TCut            ....  1.000e-14 Eh

Convergence Tolerance:
 Convergence Check Mode ConvCheckMode   .... Total+1el-Energy
 Convergence forced     ConvForced      .... 1
 Energy Change          TolE            ....  1.000e-09 Eh
 1-El. energy change                    ....  1.000e-06 Eh
 Orbital Gradient       TolG            ....  2.000e-06
 Orbital Rotation angle TolX            ....  2.000e-06
 DIIS Error             TolErr          ....  1.000e-08

------------------------------
INITIAL GUESS: MODEL POTENTIAL
------------------------------
Loading Hartree-Fock densities                     ... done
Calculating cut-offs                               ... done
Initializing the effective Hamiltonian             ... done
Setting up the integral package (SHARK)            ... done
Starting the Coulomb interaction                   ... done (   0.0 sec)
Making the grid                                    ... done (   0.1 sec)
Mapping shells                                     ... done
Starting the XC term evaluation                    ... done (   0.0 sec)
Transforming the Hamiltonian                       ... done (   0.0 sec)
Diagonalizing the Hamiltonian                      ... done (   0.0 sec)
Back transforming the eigenvectors                 ... done (   0.0 sec)
Now organizing SCF variables                       ... done
                      ------------------
                      INITIAL GUESS DONE (   0.1 sec)
                      ------------------
             **** ENERGY FILE WAS UPDATED (AR3LD_3.2_3.2_4.8.en.tmp) ****
Finished Guess after   0.2 sec
Maximum memory used throughout the entire GUESS-calculation: 6.7 MB

-------------------------------------------------------------------------------------------
                                      ORCA LEAN-SCF
                              memory conserving SCF solver
-------------------------------------------------------------------------------------------

----------------------------------------D-I-I-S--------------------------------------------
Iteration    Energy (Eh)           Delta-E    RMSDP     MaxDP     DIISErr   Damp  Time(sec)
-------------------------------------------------------------------------------------------
               ***  Starting incremental Fock matrix formation  ***
    1    -1580.3781978436388727     0.00e+00  1.07e-03  1.78e-02  9.20e-02  0.700   0.7
    2    -1580.3834660986362906    -5.27e-03  8.41e-04  1.30e-02  6.59e-02  0.700   0.7
                               ***Turning on AO-DIIS***
    3    -1580.3873006590579280    -3.83e-03  6.70e-04  9.51e-03  4.69e-02  0.700   0.6
    4    -1580.3900607213702187    -2.76e-03  1.65e-03  2.23e-02  3.29e-02  0.000   0.6
                              *** Initializing SOSCF ***
---------------------------------------S-O-S-C-F--------------------------------------
Iteration    Energy (Eh)           Delta-E    RMSDP     MaxDP     MaxGrad    Time(sec)
--------------------------------------------------------------------------------------
    5    -1580.3968089983741265    -6.75e-03  8.57e-05  1.02e-03  1.12e-03     0.6
               *** Restarting incremental Fock matrix formation ***
    6    -1580.3968183035071888    -9.31e-06  4.12e-05  5.48e-04  2.78e-04     0.7
    7    -1580.3968199436380928    -1.64e-06  1.52e-05  1.78e-04  6.64e-05     0.6
    8    -1580.3968200501458341    -1.07e-07  8.63e-07  1.51e-05  8.75e-06     0.5
    9    -1580.3968200507276833    -5.82e-10  1.76e-07  3.17e-06  1.27e-06     0.5
                 **** Energy Check signals convergence ****

               *****************************************************
               *                     SUCCESS                       *
               *           SCF CONVERGED AFTER   9 CYCLES          *
               *****************************************************

             **** ENERGY FILE WAS UPDATED (AR3LD_3.2_3.2_4.8.en.tmp) ****

----------------
TOTAL SCF ENERGY
----------------

Total Energy       :      -1580.39682005072768 Eh          -43004.78379 eV

Components:
Nuclear Repulsion  :        142.87784624099999 Eh            3887.90385 eV
Electronic Energy  :      -1723.27466629172773 Eh          -46892.68765 eV
One Electron Energy:      -2470.40348160606391 Eh          -67223.09629 eV
Two Electron Energy:        747.12881531433618 Eh           20330.40864 eV

Virial components:
Potential Energy   :      -3160.86675001441881 Eh          -86011.55701 eV
Kinetic Energy     :       1580.46992996369113 Eh           43006.77322 eV
Virial Ratio       :          1.99995374166153

---------------
SCF CONVERGENCE
---------------

  Last Energy change         ...    5.8185e-10  Tolerance :   1.0000e-09
  Last MAX-Density change    ...    3.1734e-06  Tolerance :   1.0000e-08
  Last RMS-Density change    ...    1.7638e-07  Tolerance :   1.0000e-09
  Last DIIS Error            ...    1.1164e-03  Tolerance :   1.0000e-08
  Last Orbital Gradient      ...    1.2699e-06  Tolerance :   2.0000e-06
  Last Orbital Rotation      ...    1.8457e-06  Tolerance :   2.0000e-06


----------------
ORBITAL ENERGIES
----------------

  NO   OCC          E(Eh)            E(eV) 
   0   2.0000    -118.608951     -3227.5136 
   1   2.0000    -118.608951     -3227.5136 
   2   2.0000    -118.607275     -3227.4680 
   3   2.0000     -12.321349      -335.2810 
   4   2.0000     -12.321341      -335.2807 
   5   2.0000     -12.319853      -335.2403 
   6   2.0000      -9.569927      -260.4109 
   7   2.0000      -9.569927      -260.4109 
   8   2.0000      -9.569917      -260.4107 
   9   2.0000      -9.569917      -260.4107 
  10   2.0000      -9.569917      -260.4107 
  11   2.0000      -9.569916      -260.4107 
  12   2.0000      -9.568438      -260.3704 
  13   2.0000      -9.568434      -260.3703 
  14   2.0000      -9.568428      -260.3702 
  15   2.0000      -1.282949       -34.9108 
  16   2.0000      -1.278518       -34.7902 
  17   2.0000      -1.273750       -34.6605 
  18   2.0000      -0.614112       -16.7108 
  19   2.0000      -0.611798       -16.6479 
  20   2.0000      -0.596416       -16.2293 
  21   2.0000      -0.592117       -16.1123 
  22   2.0000      -0.591588       -16.0979 
  23   2.0000      -0.591059       -16.0835 
  24   2.0000      -0.586367       -15.9559 
  25   2.0000      -0.572257       -15.5719 
  26   2.0000      -0.569454       -15.4956 
  27   0.0000       0.123121         3.3503 
  28   0.0000       0.125282         3.4091 
  29   0.0000       0.133181         3.6240 
  30   0.0000       0.135227         3.6797 
  31   0.0000       0.153090         4.1658 
  32   0.0000       0.165656         4.5077 
  33   0.0000       0.169166         4.6032 
  34   0.0000       0.184498         5.0205 
  35   0.0000       0.199131         5.4186 
  36   0.0000       0.210412         5.7256 
  37   0.0000       0.279532         7.6065 
*Only the first 10 virtual orbitals were printed.

                    ********************************
                    * MULLIKEN POPULATION ANALYSIS *
                    ********************************

-------------------------
MULLIKEN FRAGMENT CHARGES
-------------------------
 Fragment   0 :  -0.000634
 Fragment   1 :  -0.000634
 Fragment   2 :   0.001267
Sum of fragment charges:   -0.0000000

---------------------------------
MULLIKEN FRAGMENT OVERLAP CHARGES
---------------------------------
                  0          1          2    
      0      18.013755   0.001760  -0.028003
      1       0.001760  18.013755  -0.028003
      2      -0.028003  -0.028003  18.026736

-----------------------
MULLIKEN ATOMIC CHARGES
-----------------------
   0 Ar:   -0.000634
   1 Ar:   -0.000634
   2 Ar:    0.001267
Sum of atomic charges:   -0.0000000

--------------------------------
MULLIKEN REDUCED ORBITAL CHARGES
--------------------------------
  0 Ars       :     5.998122  s :     5.998122
      pz      :     3.999908  p :    12.002179
      px      :     4.001489
      py      :     4.000782
      dz2     :     0.000033  d :     0.000333
      dxz     :     0.000053
      dyz     :     0.000041
      dx2y2   :     0.000100
      dxy     :     0.000105

  1 Ars       :     5.998122  s :     5.998122
      pz      :     3.999908  p :    12.002179
      px      :     4.001489
      py      :     4.000782
      dz2     :     0.000033  d :     0.000333
      dxz     :     0.000053
      dyz     :     0.000041
      dx2y2   :     0.000100
      dxy     :     0.000105

  2 Ars       :     5.995297  s :     5.995297
      pz      :     3.999808  p :    12.002798
      px      :     4.002012
      py      :     4.000978
      dz2     :     0.000041  d :     0.000637
      dxz     :     0.000104
      dyz     :     0.000082
      dx2y2   :     0.000184
      dxy     :     0.000226



                     *******************************
                     * LOEWDIN POPULATION ANALYSIS *
                     *******************************

------------------------
LOEWDIN FRAGMENT CHARGES
------------------------
 Fragment   0 :   0.001346
 Fragment   1 :   0.001346
 Fragment   2 :  -0.002691

----------------------------
LOEWDIN FRAGMENT BOND ORDERS
----------------------------
                  0          1          2    
      0      17.998654   0.003419   0.134017
      1       0.003419  17.998654   0.134017
      2       0.134017   0.134017  18.002691

----------------------
LOEWDIN ATOMIC CHARGES
----------------------
   0 Ar:    0.001346
   1 Ar:    0.001346
   2 Ar:   -0.002691

-------------------------------
LOEWDIN REDUCED ORBITAL CHARGES
-------------------------------
  0 Ars       :     5.986209  s :     5.986209
      pz      :     3.999744  p :    12.007505
      px      :     4.004002
      py      :     4.003759
      dz2     :     0.001131  d :     0.004940
      dxz     :     0.000114
      dyz     :     0.000088
      dx2y2   :     0.000261
      dxy     :     0.003346

  1 Ars       :     5.986209  s :     5.986209
      pz      :     3.999744  p :    12.007505
      px      :     4.004002
      py      :     4.003759
      dz2     :     0.001131  d :     0.004940
      dxz     :     0.000114
      dyz     :     0.000088
      dx2y2   :     0.000261
      dxy     :     0.003346

  2 Ars       :     5.975151  s :     5.975151
      pz      :     3.999707  p :    12.017774
      px      :     4.008594
      py      :     4.009472
      dz2     :     0.002288  d :     0.009767
      dxz     :     0.000221
      dyz     :     0.000181
      dx2y2   :     0.000496
      dxy     :     0.006581



                      *****************************
                      * MAYER POPULATION ANALYSIS *
                      *****************************

  NA   - Mulliken gross atomic population
  ZA   - Total nuclear charge
  QA   - Mulliken gross atomic charge
  VA   - Mayer's total valence
  BVA  - Mayer's bonded valence
  FA   - Mayer's free valence

  ATOM       NA         ZA         QA         VA         BVA        FA
  0 Ar    18.0006    18.0000    -0.0006    -0.0026    -0.0026    -0.0000
  1 Ar    18.0006    18.0000    -0.0006    -0.0026    -0.0026    -0.0000
  2 Ar    17.9987    18.0000     0.0013    -0.0086    -0.0086    -0.0000

  Mayer bond orders larger than 0.100000
  => no bond orders to print

-------
TIMINGS
-------

Total SCF time: 0 days 0 hours 0 min 5 sec 

Total time                  ....       5.574 sec
Sum of individual times     ....       5.562 sec  ( 99.8%)

SCF preparation             ....       0.051 sec  (  0.9%)
Fock matrix formation       ....       5.478 sec  ( 98.3%)
  Startup                   ....       0.001 sec  (  0.0% of F)
  Coulomb+Exchange Fock     ....       5.472 sec  ( 99.9% of F)
Diagonalization             ....       0.000 sec  (  0.0%)
Density matrix formation    ....       0.004 sec  (  0.1%)
Total Energy calculation    ....       0.001 sec  (  0.0%)
Population analysis         ....       0.005 sec  (  0.1%)
Orbital Transformation      ....       0.004 sec  (  0.1%)
Orbital Orthonormalization  ....       0.000 sec  (  0.0%)
DIIS solution               ....       0.014 sec  (  0.2%)
SOSCF solution              ....       0.006 sec  (  0.1%)
Finished LeanSCF after   5.6 sec

Maximum memory used throughout the entire LEANSCF-calculation: 8.7 MB

------------------------------------------------------------------------------
                         ORCA PROPERTY INTEGRAL CALCULATIONS
------------------------------------------------------------------------------

GBWName                                   ... AR3LD_3.2_3.2_4.8.gbw
Number of atoms                           ...      3
Number of basis functions                 ...    150
Max core memory                           ...   1024 MB

Dipole integrals                          ... YES
Quadrupole integrals                      ...  NO
Linear momentum integrals                 ... YES
Angular momentum integrals                ... YES
Higher moments length integrals           ...  NO
Higher moments velocity integrals         ...  NO
Kinetic energy integrals                  ...  NO
GIAO right hand sides                     ...  NO
GIAO dipole derivative integrals          ...  NO
SOC integrals                             ...  NO
EPR diamagnetic integrals (GIAO)          ...  NO
EPR gauge integrals                       ...  NO
Field gradient integrals                  ...  NO (   0 nuclei)
Spin-dipole/Fermi contact integrals       ...  NO (   0 nuclei)
Contact density integrals                 ...  NO (   0 nuclei)
Nucleus-orbit integrals                   ...  NO (   0 nuclei)
Geometric perturbations                   ...  NO (   3 nuclei)

Choice of electric origin   ... Center of mass
Position of electric origin ... (  4.5353,  1.3333,  0.0000) 
Choice of magnetic origin   ... GIAO
Position of magnetic origin ... (  0.0000,  0.0000,  0.0000) 

Calculating integrals                     ... Electric Dipole (Length)     done (  0.0 sec)
Calculating integrals                     ... Linear Momentum              done (  0.0 sec)
Calculating integrals                     ... Angular Momentum  (ElOri)    done (  0.0 sec)

Property integrals calculated in   0.0 sec

Maximum memory used throughout the entire PROPINT-calculation: 6.8 MB


--------------------------------------------------------------------------------
                             ORCA-MATRIX DRIVEN CI
--------------------------------------------------------------------------------


Wavefunction type
-----------------
Correlation treatment                      ...      CCSD     
Single excitations                         ... ON
Orbital optimization                       ... OFF
Calculation of Z vector                    ... OFF
Calculation of Brueckner orbitals          ... OFF
Perturbative triple excitations            ... OFF
Calculation of F12 correction              ... OFF
Frozen core treatment                      ... chemical core (30 el)
Reference Wavefunction                     ... RHF
  Internal Orbitals:    15 ...   26 ( 12 MO's/ 24 electrons)
  Virtual  Orbitals:    27 ...   80 ( 54 MO's              )
Number of AO's                             ...     81
Number of electrons                        ...     54
Number of correlated electrons             ...     24

Algorithmic settings
--------------------
Integral transformation                    ... All integrals via the RI transformation
K(C) Formation                             ... RI-DLPNO
   PNO-Integral Storage                    ... ON DISK
   PNO occupation number cut-off           ... 3.330e-07
   Singles PNO occupation number cut-off   ... 9.990e-09
   PNO Mulliken prescreening cut-off       ... 1.000e-03
   Domain cut-off (Mulliken population)    ... 1.000e-03
   PNO Normalization                       ...    1
Maximum number of iterations               ...        50
Convergence tolerance (max. residuum)      ... 1.000e-06
Level shift for amplitude update           ... 2.000e-01
Maximum number of DIIS vectors             ...         7
DIIS turned on at iteration                ...         0
Damping before turning on DIIS             ...     0.500
Damping after turning on DIIS              ...     0.000
Pair specific amplitude update             ... OFF
Natural orbital iterations                 ... OFF
Perturbative natural orbital generation    ... OFF
Printlevel                                 ... 2

Singles Fock matrix elements calculated using PNOs.

Memory handling:
----------------
Maximum memory for working arrays          ...    512 MB
Data storage in matrix containers          ... UNCOMPRESSED
Data type for integral storage             ... DOUBLE
In-Core Storage of quantities:
   Amplitudes+Sigma Vector      ... NO
   J+K operators                ... NO
   DIIS vectors                 ... NO
   3-external integrals         ... NO
   4-external integrals         ... NO

Localization treatment:
-----------------------
Localization option                        ...    2
Localization threshhold                    ... -1.0e+00
Using relative localization threshhold     ... 1.0e-08
Neglect threshold for strong pairs         ... 1.000e-05 Eh
Prescreening threshold for very weak pairs ... 1.000e-07 Eh
Using randomized seed for localization     ... on

Initializing the integral package          ... done
Localizing the valence orbitals
Localizing the valence orbitals
Localization sum:   214.103851564 
------------------------------------------------------------------------------
                           ORCA ORBITAL LOCALIZATION
------------------------------------------------------------------------------

Input orbitals are from                  ... AR3LD_3.2_3.2_4.8.proc0.gbw
Output orbitals are to                   ... AR3LD_3.2_3.2_4.8.proc0.loc
Max. number of iterations                ... 128
Localizations seeded randomly            ... on
Convergence tolerance                    ... 2.000e-07
Using relative localization threshhold   ... 1.000e-08
Threshold for strong local MOs           ... 9.500e-01
Threshold for bond MOs                   ... 8.500e-01
Operator                                 ... 0
Orbital range for localization           ... 15 to 26
Localization criterion                   ... FOSTER-BOYS
Doing the dipole integrals     ... o.k.
Entering Jacobi type localization:
Using Cholesky decomposition as initial guess.
Initial value of the localization sum :   207.262117
ITERATION   0 : L=  214.0658122385 DL=  6.80e+00 (MAX-T)=  45.000 
ITERATION   1 : L=  214.0741134336 DL=  8.30e-03 (MAX-T)=   1.932 
ITERATION   2 : L=  214.0747984345 DL=  6.85e-04 (MAX-T)=   0.482 
ITERATION   3 : L=  214.0755606600 DL=  7.62e-04 (MAX-T)=   0.491 
ITERATION   4 : L=  214.0763650407 DL=  8.04e-04 (MAX-T)=   0.612 
ITERATION   5 : L=  214.0770421631 DL=  6.77e-04 (MAX-T)=   0.590 
ITERATION   6 : L=  214.0778332166 DL=  7.91e-04 (MAX-T)=   0.594 
ITERATION   7 : L=  214.0782941568 DL=  4.61e-04 (MAX-T)=   0.577 
ITERATION   8 : L=  214.0789707053 DL=  6.77e-04 (MAX-T)=   0.657 
ITERATION   9 : L=  214.0796460096 DL=  6.75e-04 (MAX-T)=   0.649 
ITERATION  10 : L=  214.0803532440 DL=  7.07e-04 (MAX-T)=   0.646 
ITERATION  11 : L=  214.0809952252 DL=  6.42e-04 (MAX-T)=   0.715 
ITERATION  12 : L=  214.0814331886 DL=  4.38e-04 (MAX-T)=   0.535 
ITERATION  13 : L=  214.0823143987 DL=  8.81e-04 (MAX-T)=   0.673 
ITERATION  14 : L=  214.0830114368 DL=  6.97e-04 (MAX-T)=   0.607 
ITERATION  15 : L=  214.0835652713 DL=  5.54e-04 (MAX-T)=   0.658 
ITERATION  16 : L=  214.0843280739 DL=  7.63e-04 (MAX-T)=   0.778 
ITERATION  17 : L=  214.0850309298 DL=  7.03e-04 (MAX-T)=   0.738 
ITERATION  18 : L=  214.0855697066 DL=  5.39e-04 (MAX-T)=   0.778 
ITERATION  19 : L=  214.0864595409 DL=  8.90e-04 (MAX-T)=   0.712 
ITERATION  20 : L=  214.0872487140 DL=  7.89e-04 (MAX-T)=   0.750 
ITERATION  21 : L=  214.0880335277 DL=  7.85e-04 (MAX-T)=   0.709 
ITERATION  22 : L=  214.0888325675 DL=  7.99e-04 (MAX-T)=   0.646 
ITERATION  23 : L=  214.0894931419 DL=  6.61e-04 (MAX-T)=   0.654 
ITERATION  24 : L=  214.0902524959 DL=  7.59e-04 (MAX-T)=   0.634 
ITERATION  25 : L=  214.0907789887 DL=  5.26e-04 (MAX-T)=   0.532 
ITERATION  26 : L=  214.0916457510 DL=  8.67e-04 (MAX-T)=   0.656 
ITERATION  27 : L=  214.0922354577 DL=  5.90e-04 (MAX-T)=   0.709 
ITERATION  28 : L=  214.0928157317 DL=  5.80e-04 (MAX-T)=   0.513 
ITERATION  29 : L=  214.0933201227 DL=  5.04e-04 (MAX-T)=   0.536 
ITERATION  30 : L=  214.0938847912 DL=  5.65e-04 (MAX-T)=   0.632 
ITERATION  31 : L=  214.0944010834 DL=  5.16e-04 (MAX-T)=   0.467 
ITERATION  32 : L=  214.0948332977 DL=  4.32e-04 (MAX-T)=   0.456 
ITERATION  33 : L=  214.0953267130 DL=  4.93e-04 (MAX-T)=   0.533 
ITERATION  34 : L=  214.0958014246 DL=  4.75e-04 (MAX-T)=   0.491 
ITERATION  35 : L=  214.0963024585 DL=  5.01e-04 (MAX-T)=   0.483 
ITERATION  36 : L=  214.0966544286 DL=  3.52e-04 (MAX-T)=   0.561 
ITERATION  37 : L=  214.0970842112 DL=  4.30e-04 (MAX-T)=   0.473 
ITERATION  38 : L=  214.0974198935 DL=  3.36e-04 (MAX-T)=   0.452 
ITERATION  39 : L=  214.0977463616 DL=  3.26e-04 (MAX-T)=   0.455 
ITERATION  40 : L=  214.0981435821 DL=  3.97e-04 (MAX-T)=   0.531 
ITERATION  41 : L=  214.0985370844 DL=  3.94e-04 (MAX-T)=   0.418 
ITERATION  42 : L=  214.0989129719 DL=  3.76e-04 (MAX-T)=   0.434 
ITERATION  43 : L=  214.0992020889 DL=  2.89e-04 (MAX-T)=   0.501 
ITERATION  44 : L=  214.0994893691 DL=  2.87e-04 (MAX-T)=   0.439 
ITERATION  45 : L=  214.0998537456 DL=  3.64e-04 (MAX-T)=   0.488 
ITERATION  46 : L=  214.1000845962 DL=  2.31e-04 (MAX-T)=   0.420 
ITERATION  47 : L=  214.1003479443 DL=  2.63e-04 (MAX-T)=   0.417 
ITERATION  48 : L=  214.1005324039 DL=  1.84e-04 (MAX-T)=   0.336 
ITERATION  49 : L=  214.1007053471 DL=  1.73e-04 (MAX-T)=   0.330 
ITERATION  50 : L=  214.1009900848 DL=  2.85e-04 (MAX-T)=   0.399 
ITERATION  51 : L=  214.1012044687 DL=  2.14e-04 (MAX-T)=   0.380 
ITERATION  52 : L=  214.1013435460 DL=  1.39e-04 (MAX-T)=   0.298 
ITERATION  53 : L=  214.1015110065 DL=  1.67e-04 (MAX-T)=   0.352 
ITERATION  54 : L=  214.1017245643 DL=  2.14e-04 (MAX-T)=   0.319 
ITERATION  55 : L=  214.1019016216 DL=  1.77e-04 (MAX-T)=   0.335 
ITERATION  56 : L=  214.1020366173 DL=  1.35e-04 (MAX-T)=   0.271 
ITERATION  57 : L=  214.1021621607 DL=  1.26e-04 (MAX-T)=   0.261 
ITERATION  58 : L=  214.1022877483 DL=  1.26e-04 (MAX-T)=   0.303 
ITERATION  59 : L=  214.1023785688 DL=  9.08e-05 (MAX-T)=   0.245 
ITERATION  60 : L=  214.1024725128 DL=  9.39e-05 (MAX-T)=   0.315 
ITERATION  61 : L=  214.1025851380 DL=  1.13e-04 (MAX-T)=   0.270 
ITERATION  62 : L=  214.1026789992 DL=  9.39e-05 (MAX-T)=   0.252 
ITERATION  63 : L=  214.1027866280 DL=  1.08e-04 (MAX-T)=   0.247 
ITERATION  64 : L=  214.1028700677 DL=  8.34e-05 (MAX-T)=   0.205 
ITERATION  65 : L=  214.1029303021 DL=  6.02e-05 (MAX-T)=   0.198 
ITERATION  66 : L=  214.1030174203 DL=  8.71e-05 (MAX-T)=   0.258 
ITERATION  67 : L=  214.1030607239 DL=  4.33e-05 (MAX-T)=   0.204 
ITERATION  68 : L=  214.1031297382 DL=  6.90e-05 (MAX-T)=   0.208 
ITERATION  69 : L=  214.1031887562 DL=  5.90e-05 (MAX-T)=   0.228 
ITERATION  70 : L=  214.1032400597 DL=  5.13e-05 (MAX-T)=   0.202 
ITERATION  71 : L=  214.1032833177 DL=  4.33e-05 (MAX-T)=   0.209 
ITERATION  72 : L=  214.1033289091 DL=  4.56e-05 (MAX-T)=   0.199 
ITERATION  73 : L=  214.1033734380 DL=  4.45e-05 (MAX-T)=   0.186 
ITERATION  74 : L=  214.1034191578 DL=  4.57e-05 (MAX-T)=   0.177 
ITERATION  75 : L=  214.1034522683 DL=  3.31e-05 (MAX-T)=   0.186 
ITERATION  76 : L=  214.1034833994 DL=  3.11e-05 (MAX-T)=   0.150 
ITERATION  77 : L=  214.1035133817 DL=  3.00e-05 (MAX-T)=   0.151 
ITERATION  78 : L=  214.1035451968 DL=  3.18e-05 (MAX-T)=   0.159 
ITERATION  79 : L=  214.1035692973 DL=  2.41e-05 (MAX-T)=   0.113 
ITERATION  80 : L=  214.1035980501 DL=  2.88e-05 (MAX-T)=   0.120 
ITERATION  81 : L=  214.1036220463 DL=  2.40e-05 (MAX-T)=   0.135 
ITERATION  82 : L=  214.1036434251 DL=  2.14e-05 (MAX-T)=   0.119 
ITERATION  83 : L=  214.1036638759 DL=  2.05e-05 (MAX-T)=   0.111 
ITERATION  84 : L=  214.1036732979 DL=  9.42e-06 (MAX-T)=   0.107 
ITERATION  85 : L=  214.1036928466 DL=  1.95e-05 (MAX-T)=   0.116 
ITERATION  86 : L=  214.1037109327 DL=  1.81e-05 (MAX-T)=   0.106 
ITERATION  87 : L=  214.1037239759 DL=  1.30e-05 (MAX-T)=   0.091 
ITERATION  88 : L=  214.1037371371 DL=  1.32e-05 (MAX-T)=   0.095 
ITERATION  89 : L=  214.1037495593 DL=  1.24e-05 (MAX-T)=   0.085 
ITERATION  90 : L=  214.1037622112 DL=  1.27e-05 (MAX-T)=   0.081 
ITERATION  91 : L=  214.1037720050 DL=  9.79e-06 (MAX-T)=   0.075 
ITERATION  92 : L=  214.1037793542 DL=  7.35e-06 (MAX-T)=   0.059 
ITERATION  93 : L=  214.1037883534 DL=  9.00e-06 (MAX-T)=   0.071 
ITERATION  94 : L=  214.1037953947 DL=  7.04e-06 (MAX-T)=   0.057 
ITERATION  95 : L=  214.1038019567 DL=  6.56e-06 (MAX-T)=   0.064 
ITERATION  96 : L=  214.1038075881 DL=  5.63e-06 (MAX-T)=   0.072 
ITERATION  97 : L=  214.1038129386 DL=  5.35e-06 (MAX-T)=   0.054 
ITERATION  98 : L=  214.1038194465 DL=  6.51e-06 (MAX-T)=   0.061 
ITERATION  99 : L=  214.1038238003 DL=  4.35e-06 (MAX-T)=   0.064 
ITERATION 100 : L=  214.1038274513 DL=  3.65e-06 (MAX-T)=   0.052 
ITERATION 101 : L=  214.1038313751 DL=  3.92e-06 (MAX-T)=   0.056 
ITERATION 102 : L=  214.1038344213 DL=  3.05e-06 (MAX-T)=   0.056 
ITERATION 103 : L=  214.1038382701 DL=  3.85e-06 (MAX-T)=   0.054 
ITERATION 104 : L=  214.1038415669 DL=  3.30e-06 (MAX-T)=   0.045 
ITERATION 105 : L=  214.1038450508 DL=  3.48e-06 (MAX-T)=   0.044 
ITERATION 106 : L=  214.1038475596 DL=  2.51e-06 (MAX-T)=   0.044 
ITERATION 107 : L=  214.1038498517 DL=  2.29e-06 (MAX-T)=   0.039 
ITERATION 108 : L=  214.1038515637 DL=  1.71e-06 (MAX-T)=   0.043 
LOCALIZATION SUM CONVERGED


--------------------------------------------------------------------------------
                    LOCALIZED MOLECULAR ORBITAL COMPOSITIONS
--------------------------------------------------------------------------------

The Mulliken populations for each LMO on each atom are computed
The LMO`s will be ordered according to atom index and type
  (A) Strongly localized MO`s have populations of >=0.950 on one atom
  (B) Two center bond orbitals have populations of >=0.850 on two atoms
  (C) Other MO`s are considered to be `delocalized`

FOUND  -  12 strongly local MO`s
       -   0 two center bond MO`s
       -   0 significantly delocalized MO`s

Rather strongly localized orbitals:
MO  26:   2Ar -   1.000589
MO  25:   2Ar -   1.000870
MO  24:   2Ar -   1.000870
MO  23:   2Ar -   1.000758
MO  22:   1Ar -   1.000210
MO  21:   1Ar -   1.000215
MO  20:   1Ar -   1.000293
MO  19:   1Ar -   1.000930
MO  18:   0Ar -   1.000258
MO  17:   0Ar -   1.000289
MO  16:   0Ar -   1.000930
MO  15:   0Ar -   1.000170
Localized MO's were stored in: AR3LD_3.2_3.2_4.8.proc0.loc

Localizing the core orbitals
Localization sum:   259.477696803 
------------------------------------------------------------------------------
                           ORCA ORBITAL LOCALIZATION
------------------------------------------------------------------------------

Input orbitals are from                  ... AR3LD_3.2_3.2_4.8.proc0.loc
Output orbitals are to                   ... AR3LD_3.2_3.2_4.8.proc0.loc
Max. number of iterations                ... 128
Localizations seeded randomly            ... on
Convergence tolerance                    ... 2.000e-07
Using relative localization threshhold   ... 1.000e-08
Threshold for strong local MOs           ... 9.500e-01
Threshold for bond MOs                   ... 8.500e-01
Operator                                 ... 0
Orbital range for localization           ... 0 to 14
Localization criterion                   ... FOSTER-BOYS
Doing the dipole integrals     ... o.k.
Entering Jacobi type localization:
Using Cholesky decomposition as initial guess.
Initial value of the localization sum :   259.021228
ITERATION   0 : L=  259.4744334569 DL=  4.53e-01 (MAX-T)=  45.000 
ITERATION   1 : L=  259.4776703717 DL=  3.24e-03 (MAX-T)=   5.760 
ITERATION   2 : L=  259.4776967315 DL=  2.64e-05 (MAX-T)=   0.605 
ITERATION   3 : L=  259.4776968033 DL=  7.17e-08 (MAX-T)=   0.030 
LOCALIZATION SUM CONVERGED


--------------------------------------------------------------------------------
                    LOCALIZED MOLECULAR ORBITAL COMPOSITIONS
--------------------------------------------------------------------------------

The Mulliken populations for each LMO on each atom are computed
The LMO`s will be ordered according to atom index and type
  (A) Strongly localized MO`s have populations of >=0.950 on one atom
  (B) Two center bond orbitals have populations of >=0.850 on two atoms
  (C) Other MO`s are considered to be `delocalized`

FOUND  -  15 strongly local MO`s
       -   0 two center bond MO`s
       -   0 significantly delocalized MO`s

Rather strongly localized orbitals:
MO  14:   2Ar -   1.000038
MO  13:   2Ar -   1.000025
MO  12:   2Ar -   1.000042
MO  11:   2Ar -   1.000001
MO  10:   2Ar -   1.000043
MO   9:   1Ar -   1.000030
MO   8:   1Ar -   1.000017
MO   7:   1Ar -   1.000016
MO   6:   1Ar -   1.000000
MO   5:   1Ar -   1.000013
MO   4:   0Ar -   1.000026
MO   3:   0Ar -   1.000013
MO   2:   0Ar -   1.000000
MO   1:   0Ar -   1.000013
MO   0:   0Ar -   1.000024
Localized MO's were stored in: AR3LD_3.2_3.2_4.8.proc0.loc

Warning: reference  - re-canonicalizations have been set to INT 1 VIRT 1
Warning: internal orbitals are localized - no re-canonicalization of internal orbitals
Warning: UsePNO is turned on - no re-canonicalization of internal and virtual orbitals
Fock densities were made 
Making Fock matrix and reference energy:

--------------------------
CLOSED-SHELL FOCK OPERATOR
--------------------------

Time needed for Fock operator              ...            1.139 sec
Reference energy                           ...  -1580.396820051

--------------
DLPNO SETTINGS (2015 fully linear scaling implementation)
--------------

TCutMKN:           1.000e-03
TCutPAO:           1.000e-03
TCutPNO:           3.330e-07
TCutPNOSingles:    9.990e-09
TCutEN:            9.700e-01
TCutPAOExt:        1.000e-01
TCutPairs:         1.000e-05
TCutPre:           1.000e-07
TCutOSV:           1.000e-06
TCutDOij:          1.000e-05
TCutDO:            1.000e-02
TCutC:             1.000e-04
TCutCPAO:          1.000e-03
TCutCMO:           1.000e-03
TScaleDOMP2PreScr: 2.000e+00
TScaleMKNMP2PreScr:1.000e+01
TScalePNOMP2PreScr:1.000e+00
PAO overlap thresh 1.000e-08
Using PNOs for Singles Fock computation
Use new domains
Use fully linear algorithm

--------------------------
Mulliken population of the LMOs            ... ok
Performing proximity check                 ... No problems found
Calculating differential overlap integrals ... ok

------------------------
PRESCREENING OF HF PAIRS
------------------------

   .... Finished loop over pairs

                  ============================================
                    30 of   78 PAIRS WERE SKIPPED as HF PAIRS
                  ============================================

Total time spent in skipping HF pairs                 ...     0.000 sec
--------------------------
ELECTRON PAIR PRESCREENING
--------------------------

Dipole-based pair screening          .... used

   TCutDOij = 1.000000e-05
   TCutPre  = 1.000000e-07
   .... Finished loop over pairs
Total time spent in the prescreening                  ...     0.000 sec
sum of pair energies estimated for screened out pairs ...       0.000000000000 Eh
Thresholds for map construction and integral transformation for crude MP2:
   TCutMKN                    ...     1.0e-02
   TCutDO                     ...     2.0e-02
   TCutPairs                  ...     1.0e-05
   TCutPNO_CrudeMP2           ...     3.3e-07
   TCutPNOSingles_CrudeMP2    ...     1.0e-08
--------------------------------
LOCAL RI TRANSFORMATION (IAVPAO)
--------------------------------

Orbital window:      15 to 26
Number of PAOs:      81
Basis functions:     81 (33 shells)
Aux. functions:     276 (84 shells)
Use SHARK:           on
Have SHARK:         yes

Processing maps (0.0 sec)
Average map sizes:
   Aux shells -> MOs              12.0
   Aux shells -> PAOs             81.0
   MOs        -> AO shells        28.4
   PAOs       -> AO shells        33.0

Calculating integrals (0.1 sec, 2.050 MB)
Sorting integrals (0.0 sec, 2.047 MB)
Total time for the integral transformation: 0.1 sec
--------------------------------
INITIAL GUESS AND PNO GENERATION
--------------------------------

Populations of internal orbitals onto Fragments:
  15:      1.000    0.000    0.000  assigned to fragment   1
  16:      1.001    0.000    0.001  assigned to fragment   1
  17:      1.000    0.000    0.000  assigned to fragment   1
  18:      1.000    0.000    0.000  assigned to fragment   1
  19:      0.000    1.001    0.001  assigned to fragment   2
  20:      0.000    1.000    0.000  assigned to fragment   2
  21:      0.000    1.000    0.000  assigned to fragment   2
  22:      0.000    1.000    0.000  assigned to fragment   2
  23:      0.000    0.000    1.001  assigned to fragment   3
  24:      0.000    0.001    1.001  assigned to fragment   3
  25:      0.001    0.000    1.001  assigned to fragment   3
  26:      0.000    0.000    1.001  assigned to fragment   3

Summary assignment:
   4 orbitals assigned to fragment   1
   4 orbitals assigned to fragment   2
   4 orbitals assigned to fragment   3

PNO truncation parameters                   .... 
    PAOOverlapThresh   =        1.000e-08

Pair selection                          .... 
  modified with fragment specific keywords
  Pairs will be selected according to these
  intra(inter)fragment cutoffs
  1 <-> 1
    Intrafragment pairs 1 <-> 1 neglected for CCSD
  1 <-> 2
    TCutPairs          =        1.000e-05
    TCutPNO            =        3.330e-07
    TCutMKN            =        1.000e-02
    TCutDO             =        2.000e-02
    TCutPNOSingles     =        9.990e-09
    TCutMP2Pairs       =        1.000e-06
  1 <-> 3
    TCutPairs          =        1.000e-05
    TCutPNO            =        3.330e-07
    TCutMKN            =        1.000e-02
    TCutDO             =        2.000e-02
    TCutPNOSingles     =        9.990e-09
    TCutMP2Pairs       =        1.000e-06
  2 <-> 2
    Intrafragment pairs 2 <-> 2 neglected for CCSD
  2 <-> 3
    TCutPairs          =        1.000e-05
    TCutPNO            =        3.330e-07
    TCutMKN            =        1.000e-02
    TCutDO             =        2.000e-02
    TCutPNOSingles     =        9.990e-09
    TCutMP2Pairs       =        1.000e-06
  3 <-> 3
    Intrafragment pairs 3 <-> 3 neglected for CCSD

Type of local MP2 treatment                 .... semi-local MP2
Strategy for PNO selection                  .... occupation number selection
Pair density normalization                  .... MP2 norm
Spin component scaling                      .... not used

   .... Finished loop over pairs
Making pair pair interaction lists          ... done

                       ===========================
                         35 OF   60 PAIRS ARE KEPT CCSD PAIRS
                         13 OF   60 PAIRS ARE KEPT MP2 PAIRS
                         12 OF   60 PAIRS ARE SKIPPED
                       ===========================

Total time spent in the initial guess                 ...     0.184 sec
SL-MP2 correlation energy (all non-screened pairs)    ...      -0.003437712441 Eh

Initial PNO correlation energy                        ...      -0.003260252852 Eh
sum of pair energies prescreened and skipped MP2 pairs...       0.000000000000 Eh
sum of pair energies of crude MP2 skipped pairs only  ...       0.000000000000 Eh
sum of MP2 pair energies for pairs that were not kept ...      -0.000085238421 Eh
sum of PNO error estimates for the kept pairs         ...      -0.000092221168 Eh
                                                          --------------------
sum of all corrections                                         -0.000177459589
Initial total correlation energy                               -0.003437712441
Thresholds for map construction and integral transformation for fine MP2 and CCSD(T) calculation:
   TCutMKN   ...     1.0e-03
   TCutDO    ...     1.0e-02
   TCutPairs ...     1.0e-05
   TCutCMO   ...     1.0e-03
   TCutCPAO  ...     1.0e-03

--------------------------------
LOCAL RI TRANSFORMATION (IAVPAO)
--------------------------------

Orbital window:      15 to 26
Number of PAOs:      81
Basis functions:     81 (33 shells)
Aux. functions:     276 (84 shells)
Use SHARK:           on
Have SHARK:         yes

Processing maps (0.0 sec)
Average map sizes:
   Aux shells -> MOs              12.0
   Aux shells -> PAOs             81.0
   MOs        -> AO shells        28.4
   PAOs       -> AO shells        33.0

Calculating integrals (0.1 sec, 2.050 MB)
Sorting integrals (0.0 sec, 2.047 MB)
Total time for the integral transformation: 0.1 sec
--------------------------------
INITIAL GUESS AND PNO GENERATION
--------------------------------

Populations of internal orbitals onto Fragments:
  15:      1.000    0.000    0.000  assigned to fragment   1
  16:      1.001    0.000    0.001  assigned to fragment   1
  17:      1.000    0.000    0.000  assigned to fragment   1
  18:      1.000    0.000    0.000  assigned to fragment   1
  19:      0.000    1.001    0.001  assigned to fragment   2
  20:      0.000    1.000    0.000  assigned to fragment   2
  21:      0.000    1.000    0.000  assigned to fragment   2
  22:      0.000    1.000    0.000  assigned to fragment   2
  23:      0.000    0.000    1.001  assigned to fragment   3
  24:      0.000    0.001    1.001  assigned to fragment   3
  25:      0.001    0.000    1.001  assigned to fragment   3
  26:      0.000    0.000    1.001  assigned to fragment   3

Summary assignment:
   4 orbitals assigned to fragment   1
   4 orbitals assigned to fragment   2
   4 orbitals assigned to fragment   3

PNO truncation parameters                   .... 
    PAOOverlapThresh   =        1.000e-08

Pair selection                          .... 
  modified with fragment specific keywords
  Pairs will be selected according to these
  intra(inter)fragment cutoffs
  1 <-> 1
    Intrafragment pairs 1 <-> 1 neglected for CCSD
  1 <-> 2
    TCutPairs          =        1.000e-05
    TCutPNO            =        3.330e-07
    TCutMKN            =        1.000e-03
    TCutDO             =        1.000e-02
    TCutPNOSingles     =        9.990e-09
    TCutMP2Pairs       =        1.000e-06
  1 <-> 3
    TCutPairs          =        1.000e-05
    TCutPNO            =        3.330e-07
    TCutMKN            =        1.000e-03
    TCutDO             =        1.000e-02
    TCutPNOSingles     =        9.990e-09
    TCutMP2Pairs       =        1.000e-06
  2 <-> 2
    Intrafragment pairs 2 <-> 2 neglected for CCSD
  2 <-> 3
    TCutPairs          =        1.000e-05
    TCutPNO            =        3.330e-07
    TCutMKN            =        1.000e-03
    TCutDO             =        1.000e-02
    TCutPNOSingles     =        9.990e-09
    TCutMP2Pairs       =        1.000e-06
  3 <-> 3
    Intrafragment pairs 3 <-> 3 neglected for CCSD

Type of local MP2 treatment                 .... semi-local MP2
Strategy for PNO selection                  .... occupation number selection
Pair density normalization                  .... MP2 norm
Spin component scaling                      .... not used

   .... Finished loop over pairs

 PNO Occupation Number Statistics: 
  | Av. % of trace(Dij) retained        ...  98.503600323676
  | sigma^2 in % of trace(Dij) retained ...   1.95e-01
  | Av. % of trace(Di) retained         ...  99.999935014487
  | sigma^2 in % of trace(Di) retained  ...   4.27e-10
 Distributions of % trace(Dij) recovered:
  |   [90.0, 99.0) ...    32 ( 91.4 % of all pairs)
  |   [99.0, 99.9) ...     3 (  8.6 % of all pairs)
 Distributions of % trace(Di) recovered :
  |       >= 99.9  ...    12 (100.0 % of all I-pairs )

Making pair pair interaction lists          ... done

                       ===========================
                         35 OF   60 PAIRS ARE KEPT
                       ===========================

Total time spent in the initial guess                 ...     0.202 sec
SL-MP2 correlation energy (all non-screened pairs)    ...      -0.003437718162 Eh

Initial PNO correlation energy                        ...      -0.003260256682 Eh
sum of pair energies estimated for screened out pairs ...       0.000000000000 Eh
sum of MP2 pair energies for pairs that were not kept ...      -0.000085238421 Eh
sum of PNO error estimates for the kept pairs         ...      -0.000092223059 Eh
                                                          --------------------
sum of all corrections                                         -0.000177461480
Initial total correlation energy                               -0.003437718162
Thresholds for map construction and integral transformation for fine MP2 and CCSD(T) calculation:
   TCutMKN   ...     1.0e-03
   TCutDO    ...     1.0e-02
   TCutPairs ...     1.0e-05
   TCutCMO   ...     1.0e-03
   TCutCPAO  ...     1.0e-03

Time for aux screen maps:            0.000
Time for maps after fine MP2:            0.001
-----------------------------
LOCAL RI TRANSFORMATION (IJV)
-----------------------------

Orbital window:      15 to 26
Basis functions:     81 (33 shells)
Aux. functions:     276 (84 shells)
Use SHARK:           on

Processing maps (0.0 sec)
Average map sizes:
   Aux shells -> MOs(i)           10.7
   Aux shells -> MOs(j)           12.0
   MOs        -> AO shells        28.4

Calculating integrals NOTE: Switching SHARK to General Contraction for MDCI
      If that is not desired please turn off the PGCFlag in the input (%shark PGCFlag 0 end)
(0.7 sec, 0.273 MB)
Sorting integrals (0.0 sec, 0.270 MB)
Total time for the integral transformation: 0.7 sec
--------------------------------
LOCAL RI TRANSFORMATION (VABPAO)
--------------------------------

Number of PAOs:      81
Basis functions:     81 (33 shells)
Aux. functions:     276 (84 shells)
Use SHARK:           on

Processing maps (0.0 sec)
Average map sizes:
   Aux shells -> PAOs             81.0
   PAOs       -> AO shells        33.0

Calculating integrals NOTE: Switching SHARK to General Contraction for MDCI
      If that is not desired please turn off the PGCFlag in the input (%shark PGCFlag 0 end)
(0.7 sec, 13.819 MB)
Finished


-------------------------------------
Pair Pair Term precalculation with     
RI-(ij|mn) and (im|jn) transformation  
ON THE FLY                             
-------------------------------------

   IBatch   1 (of   1)              ... done (    0.162 sec)
Total EXT                           ...           0.162 sec

IAVPA Available = YES
VABPAO Available= YES
IJV Available   = YES
IJK Available   = NO
PNO3i Available = YES
PNO3j Available = YES
PNO4 Available  = YES
---------------------
RI-PNO TRANSFORMATION
---------------------

Total Number of PNOs                   ...   289
Average number of PNOs per pair        ...     8
Maximal number of PNOs per pair        ...    10
   #pairs with  1 -  5 PNOs   :    0
   #pairs with  6 - 10 PNOs   :   35
   #pairs with 11 - 15 PNOs   :    0
   #pairs with 16 - 20 PNOs   :    0
   #pairs with 21 - 25 PNOs   :    0
   #pairs with 26 - 30 PNOs   :    0
   #pairs with 31 - 35 PNOs   :    0
   #pairs with 36 - 40 PNOs   :    0
   #pairs with 41 - 45 PNOs   :    0
   #pairs with 46 - 50 PNOs   :    0

Generation of (ij|ab)[P] integrals            ... on
Generation of (ia|bc)[P],(ja|bc)[P] integrals ... on
Storage of 3 and 4 external integrals         ... on
Generation of ALL (ka|bc)[P] integrals        ... on
Keep RI integrals in memory                   ... off

Ibatch:  1 (of  1)
Starting 2-4 index PNO integral generation ... done

Timings:
Total PNO integral transformation time     ...          0.206 sec
Size of the 3-external file                ...         0 MB
Size of the 4-external file                ...         0 MB
Size of the IKJL file                      ...         0 MB
Size of the all 3-external file            ...         1 MB
Size of the 1-external file                ...         0 MB

Making pair/pair overlap matrices          ... done (    0.048 sec)
Size of the pair overlap file              ... 1 MB
Redoing the guess amplitudes               ... done (    0.000 sec)

-------------------------
FINAL STARTUP INFORMATION
-------------------------

E(0)                                       ...  -1580.396820051
E(SL-MP2)                                  ...     -0.003437718
E(SL-MP2) including corrections            ...     -0.003437718
Initial E(tot)                             ...  -1580.400257769
<T|T>                                      ...      0.001223488
Number of pairs included                   ... 35
Total number of pairs                      ... 78

------------------------------------------------
                  RHF COUPLED CLUSTER ITERATIONS
------------------------------------------------

Number of PNO amplitudes to be optimized   ...         2421
Number of non-PNO amplitudes               ...       102060
Untruncated number of regular amplitudes   ...       227448

Iter       E(tot)           E(Corr)          Delta-E          Residual     Time
  0  -1580.400257419     -0.003259907      0.000177811      0.000668379    0.05
                           *** Turning on DIIS ***
  1  -1580.400213620     -0.003216108      0.000043799      0.000117266    0.05
  2  -1580.400235249     -0.003237737     -0.000021629      0.000033042    0.05
  3  -1580.400237855     -0.003240342     -0.000002605      0.000008314    0.04
  4  -1580.400238161     -0.003240649     -0.000000307      0.000001544    0.05
  5  -1580.400238154     -0.003240642      0.000000007      0.000000335    0.05
               --- The Coupled-Cluster iterations have converged ---

----------------------
COUPLED CLUSTER ENERGY
----------------------

E(0)                                       ...  -1580.396820051
E(CORR)(strong-pairs)                      ...     -0.003240642
E(CORR)(weak-pairs)                        ...     -0.000177461
E(CORR)(corrected)                         ...     -0.003418103
E(TOT)                                     ...  -1580.400238154
Singles Norm <S|S>**1/2                    ...      0.001596794  
T1 diagnostic                              ...      0.000325944  

------------------
LARGEST AMPLITUDES
------------------
  24-> 27  19-> 27       0.002069
  25-> 27  16-> 27       0.001839
  24-> 27  19-> 30       0.001473
  24-> 30  19-> 27       0.001448
  23-> 27  19-> 27       0.001355
  25-> 27  16-> 30       0.001351
  25-> 30  16-> 27       0.001328
  24-> 28  15-> 28       0.001304
  26-> 27  19-> 27       0.001299
  23-> 28  18-> 28       0.001256
  26-> 28  17-> 28       0.001244
  23-> 27  16-> 27       0.001237
  24-> 27  22-> 27       0.001226
  24-> 27  21-> 27       0.001219
  23-> 28  21-> 28       0.001193
  26-> 28  22-> 28       0.001183


 ===========================================================
         LOCAL ENERGY DECOMPOSITION FOR DLPNO-CC METHODS
 ===========================================================

Maximum Iterations for the Localization .. 600
Tolerance for the Localization          ..  1.00e-06
Number of fragments = 3
Fragment  1:  0
Fragment  2:  1
Fragment  3:  2

Populations of internal orbitals onto Fragments:
   0:      1.000    0.000    0.000  assigned to fragment   1
   1:      1.000    0.000    0.000  assigned to fragment   1
   2:      1.000    0.000    0.000  assigned to fragment   1
   3:      1.000    0.000    0.000  assigned to fragment   1
   4:      1.000    0.000    0.000  assigned to fragment   1
   5:      0.000    1.000    0.000  assigned to fragment   2
   6:      0.000    1.000    0.000  assigned to fragment   2
   7:      0.000    1.000    0.000  assigned to fragment   2
   8:      0.000    1.000    0.000  assigned to fragment   2
   9:      0.000    1.000    0.000  assigned to fragment   2
  10:      0.000    0.000    1.000  assigned to fragment   3
  11:      0.000    0.000    1.000  assigned to fragment   3
  12:      0.000    0.000    1.000  assigned to fragment   3
  13:      0.000    0.000    1.000  assigned to fragment   3
  14:      0.000    0.000    1.000  assigned to fragment   3
  15:      1.000    0.000    0.000  assigned to fragment   1
  16:      1.001    0.000    0.001  assigned to fragment   1
  17:      1.000    0.000    0.000  assigned to fragment   1
  18:      1.000    0.000    0.000  assigned to fragment   1
  19:      0.000    1.001    0.001  assigned to fragment   2
  20:      0.000    1.000    0.000  assigned to fragment   2
  21:      0.000    1.000    0.000  assigned to fragment   2
  22:      0.000    1.000    0.000  assigned to fragment   2
  23:      0.000    0.000    1.001  assigned to fragment   3
  24:      0.000    0.001    1.001  assigned to fragment   3
  25:      0.001    0.000    1.001  assigned to fragment   3
  26:      0.000    0.000    1.001  assigned to fragment   3

Summary assignment:
   9 orbitals assigned to fragment   1
   9 orbitals assigned to fragment   2
   9 orbitals assigned to fragment   3


--------------------------------
CORRELATION ENERGY DECOMPOSITION
--------------------------------


--------------------------------------------------
INTER- vs INTRA-FRAGMENT CORRELATION ENERGIES (Eh)
--------------------------------------------------

                                   Fragment   1            Fragment   2            Fragment   3            
                         ----------------------  ----------------------  ----------------------  
Intra strong pairs               0.000000000000         0.000000000000         0.000000000000  sum=        0.000000000000
Intra weak pairs                 0.000000000000         0.000000000000         0.000000000000  sum=        0.000000000000
Singles contribution            -0.000000000008        -0.000000000258        -0.000000000263  sum=       -0.000000000529
                         ----------------------  ----------------------  ----------------------  
                                -0.000000000008        -0.000000000258        -0.000000000263  sum=       -0.000000000529


Interaction correlation for Fragments   2 and   1:
--------------------------------------------------
Inter strong pairs               -0.000036103982 (   -0.023 kcal/mol)
Inter weak pairs                 -0.000085400779 (   -0.054 kcal/mol)
                          ----------------------
Total interaction                -0.000121504761 (   -0.076 kcal/mol)

Interaction correlation for Fragments   3 and   1:
--------------------------------------------------
Inter strong pairs               -0.001565952474 (   -0.983 kcal/mol)
Inter weak pairs                 -0.000046458337 (   -0.029 kcal/mol)
                          ----------------------
Total interaction                -0.001612410811 (   -1.012 kcal/mol)
Interaction correlation for Fragments   3 and   2:
--------------------------------------------------
Inter strong pairs               -0.001638584721 (   -1.028 kcal/mol)
Inter weak pairs                 -0.000045602364 (   -0.029 kcal/mol)
                          ----------------------
Total interaction                -0.001684187085 (   -1.057 kcal/mol)



Sum of INTRA-fragment correlation energies  =        -0.000000000529
Sum of INTER-fragment correlation energies  =        -0.003418102657
                                              ---------------------
Total correlation energy                    =        -0.003418103186

---------------------------------------------
DECOMPOSITION OF CCSD STRONG PAIRS INTO      
    DOUBLE EXCITATION TYPES (Eh)             
---------------------------------------------

Foster-Boys localization is used for localizing PNOs

Intra fragment contributions: 
INTRA Fragment 1                        0.000000000 
INTRA Fragment 2                        0.000000000 
INTRA Fragment 3                        0.000000000 

Charge transfer contributions: 
Charge Transfer 1 to 2                 -0.000000023 
Charge Transfer 1 to 3                 -0.000087219 
Charge Transfer 2 to 1                 -0.000000031 
Charge Transfer 2 to 3                 -0.000093173 
Charge Transfer 3 to 1                 -0.000083262 
Charge Transfer 3 to 2                 -0.000092391 

Dispersion contributions: 
Dispersion  2,1                        -0.000036050 
Dispersion  3,1                        -0.001395471 
Dispersion  3,2                        -0.001453021 

Singles contributions:                   
Singles energy                         -0.000000001 
 
Delocalized contributions: 
Delocalized correlation                 0.000000000 

#Time for LED analysis ..       0.0 (sec)



--------------------------------------------------------------------------------
                                    TIMINGS
--------------------------------------------------------------------------------


Total execution time                   ...        4.828 sec

Localization of occupied MO's          ...        0.117 sec (  2.4%)
Fock Matrix Formation                  ...        1.139 sec ( 23.6%)
Global overlap, Fock, MKN matrices     ...        0.170 sec (  3.5%)
Differential overlap integrals         ...        0.260 sec (  5.4%)
Organizing maps                        ...        0.004 sec (  0.1%)
RI 3-index integral generations        ...        1.684 sec ( 34.9%)
RI-PNO integral transformation         ...        0.421 sec (  8.7%)
Initial Guess                          ...        0.399 sec (  8.3%)
DIIS Solver                            ...        0.006 sec (  0.1%)
State Vector Update                    ...        0.000 sec (  0.0%)
Sigma-vector construction              ...        0.285 sec (  5.9%)
  <D|H|D>(0-ext)                       ...        0.034 sec ( 11.8% of sigma)
  <D|H|D>(2-ext)                       ...        0.025 sec (  8.6% of sigma)
  <D|H|D>(4-ext)                       ...        0.004 sec (  1.4% of sigma)
  <D|H|D>(4-ext-corr)                  ...        0.015 sec (  5.1% of sigma)
  CCSD doubles correction              ...        0.007 sec (  2.3% of sigma)
  <S|H|S>                              ...        0.024 sec (  8.4% of sigma)
  <S|H|D>(1-ext)                       ...        0.021 sec (  7.2% of sigma)
  <S|H|D>(3-ext)                       ...        0.003 sec (  1.0% of sigma)
  Fock-dressing                        ...        0.108 sec ( 37.9% of sigma)
  Singles amplitudes                   ...        0.006 sec (  2.1% of sigma)
  (ik|jl)-dressing                     ...        0.023 sec (  8.0% of sigma)
  (ij|ab),(ia|jb)-dressing             ...        0.011 sec (  4.0% of sigma)
Local Energy Decomposition             ...        0.018 sec (  0.4% of ALL)


Maximum memory used throughout the entire MDCI-calculation: 51.4 MB
----------------------------   ----------------
Inter-fragment dispersion       -0.003062004
----------------------------   ----------------


-------------------------   --------------------
FINAL SINGLE POINT ENERGY     -1580.399882054522 
-------------------------   --------------------


------------------------------------------------------------------------------
                              ORCA PROPERTY CALCULATIONS
------------------------------------------------------------------------------

GBWName                                 ... AR3LD_3.2_3.2_4.8.gbw
Number of atoms                         ...      3
Number of basis functions               ...    150
Max core memory                         ...   1024 MB

Electric properties:
Dipole moment                           ... YES
Quadrupole moment                       ...  NO
Static polarizability (Dipole/Dipole)   ...  NO
Static polarizability (Dipole/Quad.)    ...  NO
Static polarizability (Quad./Quad.)     ...  NO
Static polarizability (Velocity)        ...  NO

Atomic electric properties:
Dipole moment                           ...  NO
Quadrupole moment                       ...  NO
Static polarizability                   ...  NO

Choice of electric origin               ... Center of mass
Position of electric origin             ...     4.535343     1.333265     0.000000

General magnetic properties:
Magnetizability                         ...  NO

EPR properties:
g-Tensor (aka g-matrix)                 ...  NO
Zero-Field splitting spin-orbit         ...  NO
Zero-field splitting spin-spin          ...  NO
Hyperfine couplings                     ...  NO (   0 nuclei)
Quadrupole couplings                    ...  NO (   0 nuclei)
Contact density                         ...  NO (   0 nuclei)

NMR properties:
Chemical shifts                         ...  NO (   0 nuclei)
Spin-rotation constants                 ...  NO (   0 nuclei)
Spin-spin couplings                     ...  NO (   0 nuclei,    0 pairs)

Choice of magnetic origin               ... GIAO
Position of magnetic origin             ...     0.000000     0.000000     0.000000

Properties with geometric perturbations:
SCF Hessian                             ...  NO
IR spectrum                             ...  NO
VCD spectrum                            ...  NO
X-ray spectroscopy properties:
SCF XES/XAS/RIXS spectra                ...  NO


-------------
DIPOLE MOMENT
-------------

Method             : SCF
Type of density    : Electron Density
Multiplicity       :   1
Irrep              :   0
Energy             : -1580.3968200507276833 Eh
Relativity type    : 
Basis              : AO
                                X                 Y                 Z
Electronic contribution:     -0.000000000       0.001195031       0.000000000
Nuclear contribution   :      0.000000000      -0.000000000       0.000000000
                        -----------------------------------------
Total Dipole Moment    :     -0.000000000       0.001195031       0.000000000
                        -----------------------------------------
Magnitude (a.u.)       :      0.001195031
Magnitude (Debye)      :      0.003037527



--------------------
Rotational spectrum 
--------------------
 
Rotational constants in cm-1:             0.141291             0.036631             0.029089 
Rotational constants in MHz :          4235.803529          1098.171285           872.077197 

Dipole components along the rotational axes: 
x,y,z [a.u.] :    -0.000000     0.001195     0.000000 
x,y,z [Debye]:    -0.000000     0.003038     0.000000 

 

Dipole moment calculation done in   0.0 sec 

Maximum memory used throughout the entire PROP-calculation: 6.8 MB

--------------------------------
SUGGESTED CITATIONS FOR THIS RUN
--------------------------------

Below you find a list of papers that are relevant to this ORCA run
We neither can nor want to force you to cite these papers, but we appreciate if you do
You receive ORCA, which is the product of decades of hard work by many enthusiastic individuals, for free
The only thing we kindly ask in return is that you cite our papers,
We deeply appreciate it, if you show your appreciation for ORCA by not just citing the generic ORCA reference.

Please note that relegating all ORCA citations to the supporting information does *not* help us.
SI sections are not indexed - citations you put there will not count into any citation statistics
But we need these citations in order to attract the funding resources that allow us to do what we are doing

Therefore, if you are a happy ORCA user, please consider citing a few of the papers listed below in the main body of your paper

In addition to the list printed below, the program has created the file AR3LD_3.2_3.2_4.8.bibtex that contains the list in bibtex format
You can import this file easily into all common literature databanks and citation aid programs


List of essential papers. We consider these as the minimum necessary citations

  1. Neese,F.
     Software update: the ORCA program system, version 5.0
     WIRES Comput. Molec. Sci., 2022 12(1)e1606
     doi.org/10.1002/wcms.1606

List of papers to cite with high priority. The work reported in these papers was absolutely
necessary for this run to complete.
Our perspective: the developers of density functionals and basis sets usually get cited in chemistry papers
Good! But without the algorithms to do something with them, the functionals or basis sets would not do anything.
Hence, in our opinion, the algorithm design and method developments papers are equally worthy of getting cited

  1. Neese,F.; Hansen,A.; Liakos,D.G.
     Efficient and accurate approximations to the local coupled cluster singles doubles method using a truncated pair natural orbital basis
     J. Chem. Phys., 2009 131 064103
     doi.org/10.1063/1.3173827
  2. Neese,F.; Wennmohs,F.; Hansen,A.
     Efficient and accurate local approximations to coupled-electron pair approaches: An attempt to revive the pair natural orbital method
     J. Chem. Phys., 2009 130 114108
     doi.org/10.1063/1.3086717
  3. Riplinger,C.; Neese,F.
     An efficient and near linear scaling pair natural orbital based local coupled cluster method
     J. Chem. Phys., 2013 138(3)Art. No. 034106
     doi.org/10.1063/1.4773581
  4. Datta,D.; Kossmann,S.; Neese,F.
     Analytic energy derivatives for the calculation of the first-order molecular properties using the domain-based local pair-natural orbital coupled-cluster theory
     J. Chem. Phys., 2016 145 
     doi.org/10.1063/1.4962369
  5. Riplinger,C.; Pinski,P.; Becker,U.; Valeev,E.F.; Neese,F.
     Sparse maps-A systematic infrastructure for reduced-scaling electronic structure methods. II. Linear scaling domain based pair natural orbital coupled cluster theory
     J. Chem. Phys., 2016 144 
     doi.org/10.1063/1.4939030
  6. Schneider,W.B.; Bistoni,G.; Sparta,M.; Saitow,M.; Riplinger,C.; Auer,A.A.; Neese,F.
     Decomposition of Intermolecular Interaction Energies within the Local Pair Natural Orbital Coupled Cluster Framework
     J. Theo. Comp. Chem., 2016 12 4778-4792
     doi.org/10.1021/acs.jctc.6b00523
  7. Bistoni,G.; Riplinger,C.; Minenkov,Y.; Cavallo,L.; Auer,A.A.; Neese,F.
     Treating Subvalence Correlation Effects in Domain Based Pair Natural Orbital Coupled Cluster Calculations: An Out-of-the-Box Approach
     J. Theo. Comp. Chem., 2017 13 3220-3227
     doi.org/10.1021/acs.jctc.7b00352
  8. Altun,A.; Neese,F.; Bistoni,G.
     HFLD: A Nonempirical London Dispersion-Corrected Hartree-Fock Method for the Quantification and Analysis of Noncovalent Interaction Energies of Large Molecular Systems
     J. Chem. Theory Comput., 2019 15 5894-5907
     doi.org/10.1021/acs.jctc.9b00425
  9. Neese,F.
     The SHARK Integral Generation and Digestion System
     J. Comp. Chem., 2022  1-16
     doi.org/10.1002/jcc.26942
 10. Altun,A.; Neese,F.; Bistoni,G.
     Open-Shell Variant of the London Dispersion-Corrected Hartree–Fock Method (HFLD) for the Quantification and Analysis of Noncovalent Interaction Energies
     J. Chem. Theory Comput., 2022 XX XXXX-XXXX
     doi.org/10.1021/acs.jctc.1c01295

List of suggested additional citations. These are papers that are important in the 'surrounding' of 
of this run, or papers that preceded the highly important papers. If you like your results we are grateful for a citation.

  1. Neese,F.
     The ORCA program system
     WIRES Comput. Molec. Sci., 2012 2(1)73-78
     doi.org/10.1002/wcms.81
  2. Neese,F.
     Software update: the ORCA program system, version 4.0
     WIRES Comput. Molec. Sci., 2018 8(1)1-6
     doi.org/10.1002/wcms.1327
  3. Neese,F.; Wennmohs,F.; Becker,U.; Riplinger,C.
     The ORCA quantum chemistry program package
     J. Chem. Phys., 2020 152 Art. No. L224108
     doi.org/10.1063/5.0004608
  4. Bistoni,G.
     Finding chemical concepts in the Hilbert space: Coupled cluster analyses of noncovalent interactions
     WIRES Comput. Molec. Sci., 2020 10(3)e1442
     doi.org/10.1002/wcms.1442

List of optional additional citations

  1. Neese,F.
     Approximate second-order SCF convergence for spin unrestricted wavefunctions
     Chem. Phys. Lett., 2000 325(1-3)93-98
     doi.org/10.1016/s0009-2614(00)00662-x

Timings for individual modules:

Sum of individual times          ...       12.855 sec (=   0.214 min)
Startup calculation              ...        2.000 sec (=   0.033 min)  15.6 %
SCF iterations                   ...        5.803 sec (=   0.097 min)  45.1 %
Property integrals               ...        0.087 sec (=   0.001 min)   0.7 %
Property calculations            ...        0.101 sec (=   0.002 min)   0.8 %
MDCI module                      ...        4.865 sec (=   0.081 min)  37.8 %
                             ****ORCA TERMINATED NORMALLY****
TOTAL RUN TIME: 0 days 0 hours 0 minutes 12 seconds 944 msec
