
                                 *****************
                                 * O   R   C   A *
                                 *****************

                                            #,                                       
                                            ###                                      
                                            ####                                     
                                            #####                                    
                                            ######                                   
                                           ########,                                 
                                     ,,################,,,,,                         
                               ,,#################################,,                 
                          ,,##########################################,,             
                       ,#########################################, ''#####,          
                    ,#############################################,,   '####,        
                  ,##################################################,,,,####,       
                ,###########''''           ''''###############################       
              ,#####''   ,,,,##########,,,,          '''####'''          '####       
            ,##' ,,,,###########################,,,                        '##       
           ' ,,###''''                  '''############,,,                           
         ,,##''                                '''############,,,,        ,,,,,,###''
      ,#''                                            '''#######################'''  
     '                                                          ''''####''''         
             ,#######,   #######,   ,#######,      ##                                
            ,#'     '#,  ##    ##  ,#'     '#,    #''#        ,####,   ,####,        
            ##       ##  ##   ,#'  ##            #'  '#       #'       #'  '#        
            ##       ##  #######   ##           ,######,      #####,   #    #        
            '#,     ,#'  ##    ##  '#,     ,#' ,#      #,     #,   #   #,  ,#        
             '#######'   ##     ##  '#######'  #'      '#     '####' # '####'        



                #########################################################
                #                        -***-                          #
                #          Department of theory and spectroscopy        #
                #                                                       #
                #                      Frank Neese                      #
                #                                                       #
                #     Directorship, Architecture, Infrastructure        #
                #                    SHARK, DRIVERS                     #
                #        Core code/Algorithms in most modules           #
                #                                                       #
                #        Max Planck Institute fuer Kohlenforschung      #
                #                Kaiser Wilhelm Platz 1                 #
                #                 D-45470 Muelheim/Ruhr                 #
                #                      Germany                          #
                #                                                       #
                #                  All rights reserved                  #
                #                        -***-                          #
                #########################################################


                         Program Version 6.0.0  -   RELEASE  -


 With contributions from (in alphabetic order):
   Daniel Aravena         : Magnetic Suceptibility
   Michael Atanasov       : Ab Initio Ligand Field Theory (pilot matlab implementation)
   Alexander A. Auer      : GIAO ZORA, VPT2 properties, NMR spectrum
   Ute Becker             : All parallelization in ORCA, NUMFREQ, NUMCALC
   Giovanni Bistoni       : ED, misc. LED, open-shell LED, HFLD
   Martin Brehm           : Molecular dynamics
   Dmytro Bykov           : pre 5.0 version of the SCF Hessian
   Marcos Casanova-Páez   : Triplet and SCS-CIS(D). UHF-(DLPNO)-IP/EA/STEOM-CCSD. UHF-CVS-IP/STEOM-CCSD
   Vijay G. Chilkuri      : MRCI spin determinant printing, contributions to CSF-ICE
   Pauline Colinet        : FMM embedding
   Dipayan Datta          : RHF DLPNO-CCSD density
   Achintya Kumar Dutta   : EOM-CC, STEOM-CC
   Nicolas Foglia         : Exact transition moments, OPA infrastructure, MCD improvements
   Dmitry Ganyushin       : Spin-Orbit,Spin-Spin,Magnetic field MRCI
   Miquel Garcia          : C-PCM and meta-GGA Hessian, CCSD/C-PCM, Gaussian charge scheme
   Tiago L. C. Gouveia    : GS-ROHF, GS-ROCIS
   Yang Guo               : DLPNO-NEVPT2, F12-NEVPT2, CIM, IAO-localization
   Andreas Hansen         : Spin unrestricted coupled pair/coupled cluster methods
   Ingolf Harden          : AUTO-CI MPn and infrastructure 
   Benjamin Helmich-Paris : MC-RPA, TRAH-(SCF,CASSCF), AVAS, COSX integrals, SCF dyn. polar.
   Lee Huntington         : MR-EOM, pCC
   Robert Izsak           : Overlap fitted RIJCOSX, COSX-SCS-MP3, EOM
   Riya Kayal             : Wick's Theorem for AUTO-CI, AUTO-CI UHF-CCSDT
   Emily Kempfer          : AUTO-CI, RHF CISDT and CCSDT
   Christian Kollmar      : KDIIS, OOCD, Brueckner-CCSD(T), CCSD density, CASPT2, CASPT2-K, improved NEVPT2
   Axel Koslowski         : Symmetry handling
   Simone Kossmann        : Meta GGA functionals, TD-DFT gradient, OOMP2, (MP2 Hessian; deprecated post 5.0)
   Lucas Lang             : DCDCAS
   Marvin Lechner         : AUTO-CI (C++ implementation), FIC-MRCC
   Spencer Leger          : CASSCF response
   Dagmar Lenk            : GEPOL surface, SMD, ORCA-2-JSON
   Dimitrios Liakos       : Extrapolation schemes; Compound Job, initial MDCI parallelization
   Dimitrios Manganas     : Further ROCIS development; embedding schemes. LFT, Crystal Embedding
   Dimitrios Pantazis     : SARC Basis sets
   Anastasios Papadopoulos: AUTO-CI, single reference methods and gradients
   Taras Petrenko         : pre 6.0 DFT Hessian and TD-DFT gradient, (ASA, deprecated), ECA, 1-Electron XAS/XES, NRVS
   Peter Pinski           : DLPNO-MP2, DLPNO-MP2 Gradient
   Christoph Reimann      : Effective Core Potentials
   Marius Retegan         : Local ZFS, SOC
   Christoph Riplinger    : Optimizer, TS searches, QM/MM, DLPNO-CCSD(T), (RO)-DLPNO pert. Triples
   Michael Roemelt        : Original ROCIS implementation
   Masaaki Saitow         : Open-shell DLPNO-CCSD energy and density
   Barbara Sandhoefer     : DKH picture change effects
   Kantharuban Sivalingam : CASSCF convergence/infrastructure, NEVPT2 and variants, FIC-MRCI
   Bernardo de Souza      : ESD, SOC TD-DFT
   Georgi Stoychev        : AutoAux, RI-MP2 NMR, DLPNO-MP2 response, X2C
   Van Anh Tran           : RI-MP2 g-tensors
   Willem Van den Heuvel  : Paramagnetic NMR
   Zikuan Wang            : NOTCH, Electric field optimization 
   Frank Wennmohs         : Technical directorship and infrastructure
   Hang Xu                : AUTO-CI-Response properties 


 We gratefully acknowledge several colleagues who have allowed us to
 interface, adapt or use parts of their codes:
   Stefan Grimme, W. Hujo, H. Kruse, P. Pracht,  : VdW corrections, initial TS optimization,
                  C. Bannwarth, S. Ehlert,         DFT functionals, gCP, sTDA/sTD-DF
                  L. Wittmann, M. Mueller
   Ed Valeev, F. Pavosevic, A. Kumar             : LibInt (2-el integral package), F12 methods
   Garnet Chan, S. Sharma, J. Yang, R. Olivares  : DMRG
   Ulf Ekstrom                                   : XCFun DFT Library
   Mihaly Kallay                                 : mrcc  (arbitrary order and MRCC methods)
   Frank Weinhold                                : gennbo (NPA and NBO analysis)
   Simon Mueller                                 : openCOSMO-RS
   Christopher J. Cramer and Donald G. Truhlar   : smd solvation model
   Lars Goerigk                                  : TD-DFT with DH, B97 family of functionals
   V. Asgeirsson, H. Jonsson                     : NEB implementation
   FAccTs GmbH                                   : IRC, NEB, NEB-TS, DLPNO-Multilevel, CI-OPT
                                                   MM, QMMM, 2- and 3-layer-ONIOM, Crystal-QMMM,
                                                   LR-CPCM, SF, NACMEs, symmetry and pop. for TD-DFT,
                                                   nearIR, NL-DFT gradient (VV10), updates on ESD,
                                                   ML-optimized integration grids, MBIS, APM,
                                                   GOAT, DOCKER, SOLVATOR, interface openCOSMO-RS
   S Lehtola, MJT Oliveira, MAL Marques          : LibXC Library
   Liviu Ungur et al                             : ANISO software


 Your calculation uses the libint2 library for the computation of 2-el integrals
 For citations please refer to: http://libint.valeyev.net

 Your ORCA version has been built with support for libXC version: 6.2.2
 For citations please refer to: https://libxc.gitlab.io

 This ORCA versions uses:
   CBLAS   interface :  Fast vector & matrix operations
   LAPACKE interface :  Fast linear algebra routines
   SCALAPACK package :  Parallel linear algebra routines
   Shared memory     :  Shared parallel matrices
   BLAS/LAPACK       :  OpenBLAS 0.3.27  USE64BITINT DYNAMIC_ARCH NO_AFFINITY Haswell SINGLE_THREADED
        Core in use  :  Haswell
   Copyright (c) 2011-2014, The OpenBLAS Project


================================================================================

----- Orbital basis set information -----
Your calculation utilizes the basis: aug-cc-pVDZ 
    H, B-Ne : Obtained from the ccRepo (grant-hill.group.shef.ac.uk/ccrepo) Feb. 2017
              R. A. Kendall, T. H. Dunning, Jr., R. J. Harrison, J. Chem. Phys. 96, 6796 (1992)
         He : Obtained from the ccRepo (grant-hill.group.shef.ac.uk/ccrepo) Feb. 2017
              D. E. Woon, T. H. Dunning, Jr., J. Chem. Phys. 100, 2975 (1994)
  Li-Be, Na : Obtained from the ccRepo (grant-hill.group.shef.ac.uk/ccrepo) Feb. 2017
              B. P. Prascher, D. E. Woon, K. A. Peterson, T. H. Dunning, Jr., A. K. Wilson, Theor. Chem. Acc. 128, 69 (2011)
         Mg : Obtained from the Peterson Research Group Website (tyr0.chem.wsu.edu/~kipeters) Feb. 2017
              B. P. Prascher, D. E. Woon, K. A. Peterson, T. H. Dunning, Jr., A. K. Wilson, Theor. Chem. Acc. 128, 69 (2011)
      Al-Ar : Obtained from the ccRepo (grant-hill.group.shef.ac.uk/ccrepo) Feb. 2017
              D. E. Woon, T. H. Dunning, Jr., J. Chem. Phys. 98, 1358 (1993)
      Sc-Zn : Obtained from the ccRepo (grant-hill.group.shef.ac.uk/ccrepo) Feb. 2017
              N. B. Balabanov, K. A. Peterson, J. Chem. Phys. 123, 064107 (2005)
              N. B. Balabanov, K. A. Peterson, J. Chem. Phys. 125, 074110 (2006)
      Ga-Kr : Obtained from the ccRepo (grant-hill.group.shef.ac.uk/ccrepo) Feb. 2017
              A. K. Wilson, D. E. Woon, K. A. Peterson, T. H. Dunning, Jr., J. Chem. Phys. 110, 7667 (1999)

----- AuxC basis set information -----
Your calculation utilizes the auxiliary basis: aug-cc-pVDZ/C 
  H-He, B, Ne, Al-Ar, Ga-Ge, Se-Br : Obtained from the EMSL Basis Set Exchange (bse.pnl.gov) Feb. 2017
                                     F. Weigend, A. Kohn, C. Hattig, J. Chem. Phys. 116, 3175 (2002)
                            Be, Mg : Obtained from the TURBOMOLE 7.0 basis set library
                                     C. Haettig, Phys. Chem. Chem. Phys. 7, 59 (2005)
                               C-F : Obtained from the EMSL Basis Set Exchange (bse.pnl.gov) Feb. 2017
                                     C. Haettig, Phys. Chem. Chem. Phys. 7, 59 (2005)
                                     F. Weigend, A. Kohn, C. Hattig, J. Chem. Phys. 116, 3175 (2002)
                                As : Obtained from the EMSL Basis Set Exchange (bse.pnl.gov) Feb. 2017
                                     C. Haettig, G. Schmitz, J. Kossmann, Phys. Chem. Chem. Phys. 14, 6549 (2012)
                                Kr : Obtained from the TURBOMOLE 7.0 basis set library
                                     F. Weigend, A. Kohn, C. Hattig, J. Chem. Phys. 116, 3175 (2002)
                                     S function revised in Sep. 2009

================================================================================
                                        WARNINGS
                       Please study these warnings very carefully!
================================================================================


WARNING: Post HF methods need fully converged wavefunctions
  ===> : Setting SCFConvForced true
         You can overwrite this default with %scf ConvForced false 


================================================================================
                                       INPUT FILE
================================================================================
NAME = AR3LD_2.8_2.8_2.8.inp
|  1> # MP2 scan of the potential energy curve for Ar...Ar
|  2>                 ! HFLD aug-cc-pvdz aug-cc-pvdz/C verytightscf
|  3>                 *xyz 0 1
|  4>                 Ar(1)	0    0	0.00000000000000
|  5>                 Ar(2)	2.8	0    0.00000000000000
|  6>                 Ar(3)	1.4	2.424871130596428    0.00000000000000
|  7>                 **                         ****END OF INPUT****
================================================================================

                       ****************************
                       * Single Point Calculation *
                       ****************************

---------------------------------
CARTESIAN COORDINATES (ANGSTROEM)
---------------------------------
  Ar     0.000000    0.000000    0.000000
  Ar     2.800000    0.000000    0.000000
  Ar     1.400000    2.424871    0.000000

----------------------------
CARTESIAN COORDINATES (A.U.)
----------------------------
  NO LB      ZA    FRAG     MASS         X           Y           Z
   0 Ar   18.0000    1    39.948    0.000000    0.000000    0.000000
   1 Ar   18.0000    2    39.948    5.291233    0.000000    0.000000
   2 Ar   18.0000    3    39.948    2.645617    4.582342    0.000000

----------------------------------------------
CARTESIAN COORDINATES OF FRAGMENTS (ANGSTROEM)
----------------------------------------------

 FRAGMENT 1 
  Ar    0.000000    0.000000    0.000000

 FRAGMENT 2 
  Ar    2.800000    0.000000    0.000000

 FRAGMENT 3 
  Ar    1.400000    2.424871    0.000000

--------------------------------
INTERNAL COORDINATES (ANGSTROEM)
--------------------------------
 Ar     0   0   0     0.000000000000     0.00000000     0.00000000
 Ar     1   0   0     2.800000000000     0.00000000     0.00000000
 Ar     1   2   0     2.800000000000    60.00000000     0.00000000

---------------------------
INTERNAL COORDINATES (A.U.)
---------------------------
 Ar     0   0   0     0.000000000000     0.00000000     0.00000000
 Ar     1   0   0     5.291233174980     0.00000000     0.00000000
 Ar     1   2   0     5.291233174980    60.00000000     0.00000000

---------------------
BASIS SET INFORMATION
---------------------
There are 1 groups of distinct atoms

 Group   1 Type Ar  : 35s16p2d contracted to 5s4p2d pattern {11111111/7711/11}

Atom   0Ar   basis set group =>   1
Atom   1Ar   basis set group =>   1
Atom   2Ar   basis set group =>   1
---------------------------------
AUXILIARY/C BASIS SET INFORMATION
---------------------------------
There are 1 groups of distinct atoms

 Group   1 Type Ar  : 10s8p6d4f contracted to 10s8p6d4f pattern {1111111111/11111111/111111/1111}

Atom   0Ar   basis set group =>   1
Atom   1Ar   basis set group =>   1
Atom   2Ar   basis set group =>   1
------------------------------------------------------------------------------
                             ORCA STARTUP CALCULATIONS
------------------------------------------------------------------------------
------------------------------------------------------------------------------
                   ___                                                        
                  /   \      - P O W E R E D   B Y -                         
                 /     \                                                     
                 |  |  |   _    _      __       _____    __    __             
                 |  |  |  | |  | |    /  \     |  _  \  |  |  /  |          
                  \  \/   | |  | |   /    \    | | | |  |  | /  /          
                 / \  \   | |__| |  /  /\  \   | |_| |  |  |/  /          
                |  |  |   |  __  | /  /__\  \  |    /   |      \           
                |  |  |   | |  | | |   __   |  |    \   |  |\   \          
                \     /   | |  | | |  |  |  |  | |\  \  |  | \   \       
                 \___/    |_|  |_| |__|  |__|  |_| \__\ |__|  \__/        
                                                                              
                      - O R C A' S   B I G   F R I E N D -                    
                                      &                                       
                       - I N T E G R A L  F E E D E R -                       
                                                                              
 v1 FN, 2020, v2 2021, v3 2022-2024                                           
------------------------------------------------------------------------------


----------------------
SHARK INTEGRAL PACKAGE
----------------------

Number of atoms                             ...      3
Number of basis functions                   ...    150
Number of shells                            ...     72
Maximum angular momentum                    ...      2
Integral batch strategy                     ... SHARK/LIBINT Hybrid
RI-J (if used) integral strategy            ... SPLIT-RIJ (Revised 2003 algorithm where possible)
Printlevel                                  ...      1
Contraction scheme used                     ... PARTIAL GENERAL contraction
Prescreening option                         ... SCHWARTZ
   Thresh                                   ... 1.000e-12
   Tcut                                     ... 1.000e-14
   Tpresel                                  ... 1.000e-14 
Coulomb Range Separation                    ... NOT USED
Exchange Range Separation                   ... NOT USED
Multipole approximations                    ... NOT USED
Finite Nucleus Model                        ... NOT USED
CABS basis                                  ... NOT available
Auxiliary Coulomb fitting basis             ... NOT available
Auxiliary J/K fitting basis                 ... NOT available
Auxiliary Correlation fitting basis         ... AVAILABLE
   # of basis functions in Aux-C            ...    276
   # of shells in Aux-C                     ...     84
   Maximum angular momentum in Aux-C        ...      3
Auxiliary 'external' fitting basis          ... NOT available

Checking pre-screening integrals            ... done (  0.0 sec) Dimension = 72
Save PGC pre-screening integrals            ... done (  0.0 sec) Dimension = 72
Calculate PGC overlap integrals             ... done (  0.0 sec) Dimension = 33
Calculating pre-screening integrals (ORCA)  ... done (  0.1 sec) Dimension = 33
Check shell pair data                       ... done (  0.0 sec)
Shell pair information
Shell pair cut-off parameter TPreSel        ...   1.0e-14
Total number of shell pairs                 ...      2628
Shell pairs after pre-screening             ...      1875
Total number of primitive shell pairs       ...      2628
Primitive shell pairs kept                  ...      1875
          la=0 lb=0:    480 shell pairs
          la=1 lb=0:    699 shell pairs
          la=1 lb=1:    279 shell pairs
          la=2 lb=0:    234 shell pairs
          la=2 lb=1:    162 shell pairs
          la=2 lb=2:     21 shell pairs

Calculating one electron integrals          ... done (  0.0 sec)
Calculating RI/C V-Matrix + Cholesky decomp.... done (  0.0 sec)
Calculating Nuclear repulsion               ... done (  0.0 sec) ENN=    183.700088024143 Eh

Diagonalization of the overlap matrix:
Smallest eigenvalue                        ... 1.405e-02
Time for diagonalization                   ...    0.001 sec
Threshold for overlap eigenvalues          ... 1.000e-07
Number of eigenvalues below threshold      ... 0
Time for construction of square roots      ...    0.000 sec
Total time needed                          ...    0.001 sec

-------------------
DFT GRID GENERATION
-------------------

General Integration Accuracy     IntAcc      ... 4.388
Radial Grid Type                 RadialGrid  ... OptM3 with GC (2021)
Angular Grid (max. ang.)         AngularGrid ... 4 (Lebedev-302)
Angular grid pruning method      GridPruning ... 4 (adaptive)
Weight generation scheme         WeightScheme... mBecke (2022)
Basis function cutoff            BFCut       ... 1.0000e-12
Integration weight cutoff        WCut        ... 1.0000e-14
Partially contracted basis set               ... off
Rotationally invariant grid construction     ... off
Angular grids for H and He will be reduced by one unit

Total number of grid points                  ...    22074
Total number of batches                      ...      346
Average number of points per batch           ...       63
Average number of grid points per atom       ...     7358

---------------------
SHARK GRID GENERATION
---------------------

General Integration Accuracy     IntAcc      ... 4.388
Radial Grid Type                 RadialGrid  ... OptM3 with GC (2021)
Angular Grid (max. ang.)         AngularGrid ... 4 (Lebedev-302)
Angular grid pruning method      GridPruning ... 4 (adaptive)
Weight generation scheme         WeightScheme... mBecke (2022)
Basis function cutoff            BFCut       ... 1.0000e-12
Integration weight cutoff        WCut        ... 1.0000e-14
Partially contracted basis set               ... off
Rotationally invariant grid construction     ... off
Angular grids for H and He will be reduced by one unit
Core-polarized basis detected: some atoms will have their core
                               angular grid increased.
Steep s-basis detected: some atoms will have their radial
                        grid points doubled.

Total number of grid points                  ...    58000
Total number of batches                      ...      908
Average number of points per batch           ...       63
Average number of grid points per atom       ...    19333
Initializing property integral containers    ... done (  0.0 sec)

SHARK setup successfully completed in   1.4 seconds

Maximum memory used throughout the entire STARTUP-calculation: 27.6 MB
-------------------------------------------------------------------------------
                                 ORCA GUESS
                   Start orbitals & Density for SCF / CASSCF
-------------------------------------------------------------------------------

------------
SCF SETTINGS
------------
Hamiltonian:
 Ab initio Hamiltonian  Method          .... Hartree-Fock(GTOs)


General Settings:
 Integral files         IntName         .... AR3LD_2.8_2.8_2.8
 Hartree-Fock type      HFTyp           .... RHF
 Total Charge           Charge          ....    0
 Multiplicity           Mult            ....    1
 Number of Electrons    NEL             ....   54
 Basis Dimension        Dim             ....   81
 Nuclear Repulsion      ENuc            ....    183.7000880241 Eh

Convergence Acceleration:
 AO-DIIS                CNVDIIS         .... on
   Start iteration      DIISMaxIt       ....    12
   Startup error        DIISStart       ....  0.200000
   # of expansion vecs  DIISMaxEq       ....     5
   Bias factor          DIISBfac        ....   1.050
   Max. coefficient     DIISMaxC        ....  10.000
 MO-DIIS                CNVKDIIS        .... off
 Trust-Rad. Augm. Hess. CNVTRAH         .... auto
   Auto Start mean grad. ratio tolernc. ....  1.125000
   Auto Start start iteration           ....    50
   Auto Start num. interpolation iter.  ....    10
   Max. Number of Micro iterations      ....    24
   Max. Number of Macro iterations      .... Maxiter - #DIIS iter
   Number of Davidson start vectors     ....     2
   Converg. threshold    (grad. norm)   ....   2.000e-06
   Grad. Scal. Fac. for Micro threshold ....   0.100
   Minimum threshold for Micro iter.    ....   1.000e-02
   NR start threshold (gradient norm)   ....   1.000e-04
   Initial trust radius                 ....   0.400
   Minimum AH scaling param. (alpha)    ....   1.000
   Maximum AH scaling param. (alpha)    .... 1000.000
   Quad. conv. algorithm                .... NR
   White noise on init. David. guess    .... on
   Maximum white noise                  ....   0.010
   Pseudo random numbers                .... off
   Inactive MOs                         .... canonical
   Orbital update algorithm             .... Taylor
   Preconditioner                       .... Diag
   Full preconditioner red. dimension   ....   250
 SOSCF                  CNVSOSCF        .... on
   Start iteration      SOSCFMaxIt      ....   150
   Startup grad/error   SOSCFStart      ....  0.003300
   Hessian update       SOSCFHessUp     .... L-BFGS
 Level Shifting         CNVShift        .... on
   Level shift para.    LevelShift      ....    0.2500
   Turn off err/grad.   ShiftErr        ....    0.0010
 Zerner damping         CNVZerner       .... off
 Static damping         CNVDamp         .... on
   Fraction old density DampFac         ....    0.7000
   Max. Damping (<1)    DampMax         ....    0.9800
   Min. Damping (>=0)   DampMin         ....    0.0000
   Turn off err/grad.   DampErr         ....    0.1000

SCF Procedure:
 Maximum # iterations   MaxIter         ....   125
 SCF integral mode      SCFMode         .... Direct
   Integral package                     .... SHARK and LIBINT hybrid scheme
 Reset frequency        DirectResetFreq ....    20
 Integral Threshold     Thresh          ....  1.000e-12 Eh
 Primitive CutOff       TCut            ....  1.000e-14 Eh

Convergence Tolerance:
 Convergence Check Mode ConvCheckMode   .... Total+1el-Energy
 Convergence forced     ConvForced      .... 1
 Energy Change          TolE            ....  1.000e-09 Eh
 1-El. energy change                    ....  1.000e-06 Eh
 Orbital Gradient       TolG            ....  2.000e-06
 Orbital Rotation angle TolX            ....  2.000e-06
 DIIS Error             TolErr          ....  1.000e-08

------------------------------
INITIAL GUESS: MODEL POTENTIAL
------------------------------
Loading Hartree-Fock densities                     ... done
Calculating cut-offs                               ... done
Initializing the effective Hamiltonian             ... done
Setting up the integral package (SHARK)            ... done
Starting the Coulomb interaction                   ... done (   0.0 sec)
Making the grid                                    ... done (   0.0 sec)
Mapping shells                                     ... done
Starting the XC term evaluation                    ... done (   0.0 sec)
Transforming the Hamiltonian                       ... done (   0.0 sec)
Diagonalizing the Hamiltonian                      ... done (   0.0 sec)
Back transforming the eigenvectors                 ... done (   0.0 sec)
Now organizing SCF variables                       ... done
                      ------------------
                      INITIAL GUESS DONE (   0.1 sec)
                      ------------------
             **** ENERGY FILE WAS UPDATED (AR3LD_2.8_2.8_2.8.en.tmp) ****
Finished Guess after   0.1 sec
Maximum memory used throughout the entire GUESS-calculation: 6.8 MB

-------------------------------------------------------------------------------------------
                                      ORCA LEAN-SCF
                              memory conserving SCF solver
-------------------------------------------------------------------------------------------

----------------------------------------D-I-I-S--------------------------------------------
Iteration    Energy (Eh)           Delta-E    RMSDP     MaxDP     DIISErr   Damp  Time(sec)
-------------------------------------------------------------------------------------------
               ***  Starting incremental Fock matrix formation  ***
    1    -1580.3444198403478822     0.00e+00  1.25e-03  1.79e-02  8.81e-02  0.700   0.7
    2    -1580.3502686130045731    -5.85e-03  9.93e-04  1.30e-02  6.32e-02  0.700   0.6
                               ***Turning on AO-DIIS***
    3    -1580.3545548610316018    -4.29e-03  7.97e-04  9.56e-03  4.49e-02  0.700   0.6
    4    -1580.3576545225303107    -3.10e-03  1.96e-03  2.25e-02  3.16e-02  0.000   0.6
                              *** Initializing SOSCF ***
---------------------------------------S-O-S-C-F--------------------------------------
Iteration    Energy (Eh)           Delta-E    RMSDP     MaxDP     MaxGrad    Time(sec)
--------------------------------------------------------------------------------------
    5    -1580.3652976003202184    -7.64e-03  9.57e-05  9.62e-04  1.00e-03     0.7
               *** Restarting incremental Fock matrix formation ***
    6    -1580.3653085039491089    -1.09e-05  4.37e-05  5.77e-04  2.50e-04     0.7
    7    -1580.3653102182377097    -1.71e-06  1.57e-05  1.92e-04  5.95e-05     0.6
    8    -1580.3653103276321872    -1.09e-07  8.61e-07  1.41e-05  7.30e-06     0.5
    9    -1580.3653103282297252    -5.98e-10  1.72e-07  2.63e-06  1.83e-06     0.5
                 **** Energy Check signals convergence ****

               *****************************************************
               *                     SUCCESS                       *
               *           SCF CONVERGED AFTER   9 CYCLES          *
               *****************************************************

             **** ENERGY FILE WAS UPDATED (AR3LD_2.8_2.8_2.8.en.tmp) ****

----------------
TOTAL SCF ENERGY
----------------

Total Energy       :      -1580.36531032822973 Eh          -43003.92637 eV

Components:
Nuclear Repulsion  :        183.70008802414287 Eh            4998.73353 eV
Electronic Energy  :      -1764.06539835237254 Eh          -48002.65990 eV
One Electron Energy:      -2552.13166626855673 Eh          -69447.03326 eV
Two Electron Energy:        788.06626791618419 Eh           21444.37336 eV

Virial components:
Potential Energy   :      -3161.09932183812043 Eh          -86017.88561 eV
Kinetic Energy     :       1580.73401150989071 Eh           43013.95924 eV
Virial Ratio       :          1.99976675317987

---------------
SCF CONVERGENCE
---------------

  Last Energy change         ...    5.9754e-10  Tolerance :   1.0000e-09
  Last MAX-Density change    ...    2.6252e-06  Tolerance :   1.0000e-08
  Last RMS-Density change    ...    1.7165e-07  Tolerance :   1.0000e-09
  Last DIIS Error            ...    1.0023e-03  Tolerance :   1.0000e-08
  Last Orbital Gradient      ...    1.8315e-06  Tolerance :   2.0000e-06
  Last Orbital Rotation      ...    2.0987e-06  Tolerance :   2.0000e-06


----------------
ORBITAL ENERGIES
----------------

  NO   OCC          E(Eh)            E(eV) 
   0   2.0000    -118.602241     -3227.3310 
   1   2.0000    -118.602241     -3227.3310 
   2   2.0000    -118.602240     -3227.3310 
   3   2.0000     -12.316149      -335.1395 
   4   2.0000     -12.316149      -335.1395 
   5   2.0000     -12.316115      -335.1385 
   6   2.0000      -9.564704      -260.2688 
   7   2.0000      -9.564704      -260.2688 
   8   2.0000      -9.564702      -260.2688 
   9   2.0000      -9.564583      -260.2655 
  10   2.0000      -9.564580      -260.2654 
  11   2.0000      -9.564580      -260.2654 
  12   2.0000      -9.564544      -260.2645 
  13   2.0000      -9.564544      -260.2645 
  14   2.0000      -9.564540      -260.2644 
  15   2.0000      -1.298109       -35.3233 
  16   2.0000      -1.270486       -34.5717 
  17   2.0000      -1.270486       -34.5717 
  18   2.0000      -0.654785       -17.8176 
  19   2.0000      -0.620275       -16.8785 
  20   2.0000      -0.620275       -16.8785 
  21   2.0000      -0.607856       -16.5406 
  22   2.0000      -0.582674       -15.8554 
  23   2.0000      -0.582674       -15.8554 
  24   2.0000      -0.558777       -15.2051 
  25   2.0000      -0.548277       -14.9194 
  26   2.0000      -0.548277       -14.9194 
  27   0.0000       0.113939         3.1004 
  28   0.0000       0.113939         3.1004 
  29   0.0000       0.134635         3.6636 
  30   0.0000       0.140777         3.8307 
  31   0.0000       0.174370         4.7449 
  32   0.0000       0.174370         4.7449 
  33   0.0000       0.176428         4.8009 
  34   0.0000       0.176428         4.8009 
  35   0.0000       0.211443         5.7537 
  36   0.0000       0.216427         5.8893 
  37   0.0000       0.324348         8.8260 
*Only the first 10 virtual orbitals were printed.

                    ********************************
                    * MULLIKEN POPULATION ANALYSIS *
                    ********************************

-------------------------
MULLIKEN FRAGMENT CHARGES
-------------------------
 Fragment   0 :   0.000000
 Fragment   1 :   0.000000
 Fragment   2 :  -0.000000
Sum of fragment charges:   -0.0000000

---------------------------------
MULLIKEN FRAGMENT OVERLAP CHARGES
---------------------------------
                  0          1          2    
      0      18.125507  -0.125507  -0.125507
      1      -0.125507  18.125507  -0.125507
      2      -0.125507  -0.125507  18.125507

-----------------------
MULLIKEN ATOMIC CHARGES
-----------------------
   0 Ar:    0.000000
   1 Ar:    0.000000
   2 Ar:   -0.000000
Sum of atomic charges:   -0.0000000

--------------------------------
MULLIKEN REDUCED ORBITAL CHARGES
--------------------------------
  0 Ars       :     5.990750  s :     5.990750
      pz      :     3.999330  p :    12.007049
      px      :     4.004952
      py      :     4.002767
      dz2     :     0.000103  d :     0.002201
      dxz     :     0.000412
      dyz     :     0.000259
      dx2y2   :     0.000919
      dxy     :     0.000508

  1 Ars       :     5.990750  s :     5.990750
      pz      :     3.999330  p :    12.007049
      px      :     4.004952
      py      :     4.002767
      dz2     :     0.000103  d :     0.002201
      dxz     :     0.000412
      dyz     :     0.000259
      dx2y2   :     0.000919
      dxy     :     0.000508

  2 Ars       :     5.990750  s :     5.990750
      pz      :     3.999330  p :    12.007049
      px      :     4.001675
      py      :     4.006044
      dz2     :     0.000103  d :     0.002201
      dxz     :     0.000182
      dyz     :     0.000488
      dx2y2   :     0.000302
      dxy     :     0.001125



                     *******************************
                     * LOEWDIN POPULATION ANALYSIS *
                     *******************************

------------------------
LOEWDIN FRAGMENT CHARGES
------------------------
 Fragment   0 :   0.000000
 Fragment   1 :   0.000000
 Fragment   2 :  -0.000000

----------------------------
LOEWDIN FRAGMENT BOND ORDERS
----------------------------
                  0          1          2    
      0      18.000000   0.263269   0.263269
      1       0.263269  18.000000   0.263269
      2       0.263269   0.263269  18.000000

----------------------
LOEWDIN ATOMIC CHARGES
----------------------
   0 Ar:    0.000000
   1 Ar:    0.000000
   2 Ar:   -0.000000

-------------------------------
LOEWDIN REDUCED ORBITAL CHARGES
-------------------------------
  0 Ars       :     5.952628  s :     5.952628
      pz      :     3.997107  p :    12.002625
      px      :     4.005656
      py      :     3.999862
      dz2     :     0.009880  d :     0.044748
      dxz     :     0.001758
      dyz     :     0.001136
      dx2y2   :     0.020158
      dxy     :     0.011816

  1 Ars       :     5.952628  s :     5.952628
      pz      :     3.997107  p :    12.002625
      px      :     4.005656
      py      :     3.999862
      dz2     :     0.009880  d :     0.044748
      dxz     :     0.001758
      dyz     :     0.001136
      dx2y2   :     0.020158
      dxy     :     0.011816

  2 Ars       :     5.952628  s :     5.952628
      pz      :     3.997107  p :    12.002625
      px      :     3.996965
      py      :     4.008553
      dz2     :     0.009880  d :     0.044748
      dxz     :     0.000824
      dyz     :     0.002069
      dx2y2   :     0.007645
      dxy     :     0.024328



                      *****************************
                      * MAYER POPULATION ANALYSIS *
                      *****************************

  NA   - Mulliken gross atomic population
  ZA   - Total nuclear charge
  QA   - Mulliken gross atomic charge
  VA   - Mayer's total valence
  BVA  - Mayer's bonded valence
  FA   - Mayer's free valence

  ATOM       NA         ZA         QA         VA         BVA        FA
  0 Ar    18.0000    18.0000     0.0000    -0.0561    -0.0561     0.0000
  1 Ar    18.0000    18.0000     0.0000    -0.0561    -0.0561     0.0000
  2 Ar    18.0000    18.0000    -0.0000    -0.0561    -0.0561     0.0000

  Mayer bond orders larger than 0.100000
  => no bond orders to print

-------
TIMINGS
-------

Total SCF time: 0 days 0 hours 0 min 5 sec 

Total time                  ....       5.633 sec
Sum of individual times     ....       5.625 sec  ( 99.9%)

SCF preparation             ....       0.057 sec  (  1.0%)
Fock matrix formation       ....       5.546 sec  ( 98.5%)
  Startup                   ....       0.001 sec  (  0.0% of F)
  Coulomb+Exchange Fock     ....       5.543 sec  ( 99.9% of F)
Diagonalization             ....       0.000 sec  (  0.0%)
Density matrix formation    ....       0.002 sec  (  0.0%)
Total Energy calculation    ....       0.001 sec  (  0.0%)
Population analysis         ....       0.002 sec  (  0.0%)
Orbital Transformation      ....       0.003 sec  (  0.1%)
Orbital Orthonormalization  ....       0.000 sec  (  0.0%)
DIIS solution               ....       0.009 sec  (  0.2%)
SOSCF solution              ....       0.004 sec  (  0.1%)
Finished LeanSCF after   5.6 sec

Maximum memory used throughout the entire LEANSCF-calculation: 8.8 MB

------------------------------------------------------------------------------
                         ORCA PROPERTY INTEGRAL CALCULATIONS
------------------------------------------------------------------------------

GBWName                                   ... AR3LD_2.8_2.8_2.8.gbw
Number of atoms                           ...      3
Number of basis functions                 ...    150
Max core memory                           ...   1024 MB

Dipole integrals                          ... YES
Quadrupole integrals                      ...  NO
Linear momentum integrals                 ... YES
Angular momentum integrals                ... YES
Higher moments length integrals           ...  NO
Higher moments velocity integrals         ...  NO
Kinetic energy integrals                  ...  NO
GIAO right hand sides                     ...  NO
GIAO dipole derivative integrals          ...  NO
SOC integrals                             ...  NO
EPR diamagnetic integrals (GIAO)          ...  NO
EPR gauge integrals                       ...  NO
Field gradient integrals                  ...  NO (   0 nuclei)
Spin-dipole/Fermi contact integrals       ...  NO (   0 nuclei)
Contact density integrals                 ...  NO (   0 nuclei)
Nucleus-orbit integrals                   ...  NO (   0 nuclei)
Geometric perturbations                   ...  NO (   3 nuclei)

Choice of electric origin   ... Center of mass
Position of electric origin ... (  2.6456,  1.5274,  0.0000) 
Choice of magnetic origin   ... GIAO
Position of magnetic origin ... (  0.0000,  0.0000,  0.0000) 

Calculating integrals                     ... Electric Dipole (Length)     done (  0.0 sec)
Calculating integrals                     ... Linear Momentum              done (  0.0 sec)
Calculating integrals                     ... Angular Momentum  (ElOri)    done (  0.0 sec)

Property integrals calculated in   0.0 sec

Maximum memory used throughout the entire PROPINT-calculation: 6.9 MB


--------------------------------------------------------------------------------
                             ORCA-MATRIX DRIVEN CI
--------------------------------------------------------------------------------


Wavefunction type
-----------------
Correlation treatment                      ...      CCSD     
Single excitations                         ... ON
Orbital optimization                       ... OFF
Calculation of Z vector                    ... OFF
Calculation of Brueckner orbitals          ... OFF
Perturbative triple excitations            ... OFF
Calculation of F12 correction              ... OFF
Frozen core treatment                      ... chemical core (30 el)
Reference Wavefunction                     ... RHF
  Internal Orbitals:    15 ...   26 ( 12 MO's/ 24 electrons)
  Virtual  Orbitals:    27 ...   80 ( 54 MO's              )
Number of AO's                             ...     81
Number of electrons                        ...     54
Number of correlated electrons             ...     24

Algorithmic settings
--------------------
Integral transformation                    ... All integrals via the RI transformation
K(C) Formation                             ... RI-DLPNO
   PNO-Integral Storage                    ... ON DISK
   PNO occupation number cut-off           ... 3.330e-07
   Singles PNO occupation number cut-off   ... 9.990e-09
   PNO Mulliken prescreening cut-off       ... 1.000e-03
   Domain cut-off (Mulliken population)    ... 1.000e-03
   PNO Normalization                       ...    1
Maximum number of iterations               ...        50
Convergence tolerance (max. residuum)      ... 1.000e-06
Level shift for amplitude update           ... 2.000e-01
Maximum number of DIIS vectors             ...         7
DIIS turned on at iteration                ...         0
Damping before turning on DIIS             ...     0.500
Damping after turning on DIIS              ...     0.000
Pair specific amplitude update             ... OFF
Natural orbital iterations                 ... OFF
Perturbative natural orbital generation    ... OFF
Printlevel                                 ... 2

Singles Fock matrix elements calculated using PNOs.

Memory handling:
----------------
Maximum memory for working arrays          ...    512 MB
Data storage in matrix containers          ... UNCOMPRESSED
Data type for integral storage             ... DOUBLE
In-Core Storage of quantities:
   Amplitudes+Sigma Vector      ... NO
   J+K operators                ... NO
   DIIS vectors                 ... NO
   3-external integrals         ... NO
   4-external integrals         ... NO

Localization treatment:
-----------------------
Localization option                        ...    2
Localization threshhold                    ... -1.0e+00
Using relative localization threshhold     ... 1.0e-08
Neglect threshold for strong pairs         ... 1.000e-05 Eh
Prescreening threshold for very weak pairs ... 1.000e-07 Eh
Using randomized seed for localization     ... on

Initializing the integral package          ... done
Localizing the valence orbitals
Localizing the valence orbitals
Localization sum:   119.264244862 
------------------------------------------------------------------------------
                           ORCA ORBITAL LOCALIZATION
------------------------------------------------------------------------------

Input orbitals are from                  ... AR3LD_2.8_2.8_2.8.proc0.gbw
Output orbitals are to                   ... AR3LD_2.8_2.8_2.8.proc0.loc
Max. number of iterations                ... 128
Localizations seeded randomly            ... on
Convergence tolerance                    ... 2.000e-07
Using relative localization threshhold   ... 1.000e-08
Threshold for strong local MOs           ... 9.500e-01
Threshold for bond MOs                   ... 8.500e-01
Operator                                 ... 0
Orbital range for localization           ... 15 to 26
Localization criterion                   ... FOSTER-BOYS
Doing the dipole integrals     ... o.k.
Entering Jacobi type localization:
Using Cholesky decomposition as initial guess.
Initial value of the localization sum :   112.130169
ITERATION   0 : L=  119.1761744711 DL=  7.05e+00 (MAX-T)=  45.000 
ITERATION   1 : L=  119.1926353860 DL=  1.65e-02 (MAX-T)=   3.577 
ITERATION   2 : L=  119.1960876743 DL=  3.45e-03 (MAX-T)=   0.933 
ITERATION   3 : L=  119.1985810978 DL=  2.49e-03 (MAX-T)=   1.004 
ITERATION   4 : L=  119.2009637721 DL=  2.38e-03 (MAX-T)=   0.982 
ITERATION   5 : L=  119.2033786624 DL=  2.41e-03 (MAX-T)=   0.870 
ITERATION   6 : L=  119.2056044430 DL=  2.23e-03 (MAX-T)=   0.871 
ITERATION   7 : L=  119.2076276079 DL=  2.02e-03 (MAX-T)=   0.917 
ITERATION   8 : L=  119.2094311632 DL=  1.80e-03 (MAX-T)=   0.881 
ITERATION   9 : L=  119.2107379474 DL=  1.31e-03 (MAX-T)=   0.755 
ITERATION  10 : L=  119.2124829709 DL=  1.75e-03 (MAX-T)=   0.842 
ITERATION  11 : L=  119.2142053975 DL=  1.72e-03 (MAX-T)=   0.860 
ITERATION  12 : L=  119.2159933185 DL=  1.79e-03 (MAX-T)=   0.840 
ITERATION  13 : L=  119.2175437380 DL=  1.55e-03 (MAX-T)=   0.864 
ITERATION  14 : L=  119.2194963907 DL=  1.95e-03 (MAX-T)=   1.083 
ITERATION  15 : L=  119.2214167534 DL=  1.92e-03 (MAX-T)=   0.942 
ITERATION  16 : L=  119.2227771340 DL=  1.36e-03 (MAX-T)=   0.874 
ITERATION  17 : L=  119.2243187937 DL=  1.54e-03 (MAX-T)=   1.191 
ITERATION  18 : L=  119.2267111278 DL=  2.39e-03 (MAX-T)=   0.995 
ITERATION  19 : L=  119.2296746664 DL=  2.96e-03 (MAX-T)=   1.491 
ITERATION  20 : L=  119.2333428822 DL=  3.67e-03 (MAX-T)=   1.520 
ITERATION  21 : L=  119.2362900571 DL=  2.95e-03 (MAX-T)=   1.021 
ITERATION  22 : L=  119.2396999072 DL=  3.41e-03 (MAX-T)=   1.400 
ITERATION  23 : L=  119.2424263641 DL=  2.73e-03 (MAX-T)=   1.326 
ITERATION  24 : L=  119.2460655727 DL=  3.64e-03 (MAX-T)=   1.690 
ITERATION  25 : L=  119.2490760218 DL=  3.01e-03 (MAX-T)=   1.488 
ITERATION  26 : L=  119.2516400862 DL=  2.56e-03 (MAX-T)=   1.354 
ITERATION  27 : L=  119.2543920176 DL=  2.75e-03 (MAX-T)=   1.422 
ITERATION  28 : L=  119.2567223879 DL=  2.33e-03 (MAX-T)=   1.111 
ITERATION  29 : L=  119.2582458731 DL=  1.52e-03 (MAX-T)=   0.867 
ITERATION  30 : L=  119.2594764330 DL=  1.23e-03 (MAX-T)=   0.836 
ITERATION  31 : L=  119.2600071272 DL=  5.31e-04 (MAX-T)=   0.752 
ITERATION  32 : L=  119.2607389386 DL=  7.32e-04 (MAX-T)=   0.743 
ITERATION  33 : L=  119.2615749160 DL=  8.36e-04 (MAX-T)=   0.574 
ITERATION  34 : L=  119.2620727424 DL=  4.98e-04 (MAX-T)=   0.477 
ITERATION  35 : L=  119.2624974362 DL=  4.25e-04 (MAX-T)=   0.475 
ITERATION  36 : L=  119.2627497104 DL=  2.52e-04 (MAX-T)=   0.382 
ITERATION  37 : L=  119.2630153950 DL=  2.66e-04 (MAX-T)=   0.352 
ITERATION  38 : L=  119.2631998575 DL=  1.84e-04 (MAX-T)=   0.299 
ITERATION  39 : L=  119.2633874912 DL=  1.88e-04 (MAX-T)=   0.314 
ITERATION  40 : L=  119.2635403014 DL=  1.53e-04 (MAX-T)=   0.297 
ITERATION  41 : L=  119.2636420909 DL=  1.02e-04 (MAX-T)=   0.214 
ITERATION  42 : L=  119.2637355830 DL=  9.35e-05 (MAX-T)=   0.213 
ITERATION  43 : L=  119.2638219661 DL=  8.64e-05 (MAX-T)=   0.223 
ITERATION  44 : L=  119.2638852790 DL=  6.33e-05 (MAX-T)=   0.202 
ITERATION  45 : L=  119.2639485628 DL=  6.33e-05 (MAX-T)=   0.173 
ITERATION  46 : L=  119.2639913348 DL=  4.28e-05 (MAX-T)=   0.193 
ITERATION  47 : L=  119.2640153091 DL=  2.40e-05 (MAX-T)=   0.143 
ITERATION  48 : L=  119.2640538875 DL=  3.86e-05 (MAX-T)=   0.168 
ITERATION  49 : L=  119.2640840862 DL=  3.02e-05 (MAX-T)=   0.113 
ITERATION  50 : L=  119.2641013089 DL=  1.72e-05 (MAX-T)=   0.103 
ITERATION  51 : L=  119.2641216878 DL=  2.04e-05 (MAX-T)=   0.132 
ITERATION  52 : L=  119.2641416453 DL=  2.00e-05 (MAX-T)=   0.090 
ITERATION  53 : L=  119.2641567122 DL=  1.51e-05 (MAX-T)=   0.088 
ITERATION  54 : L=  119.2641704423 DL=  1.37e-05 (MAX-T)=   0.093 
ITERATION  55 : L=  119.2641788234 DL=  8.38e-06 (MAX-T)=   0.078 
ITERATION  56 : L=  119.2641862660 DL=  7.44e-06 (MAX-T)=   0.072 
ITERATION  57 : L=  119.2641947633 DL=  8.50e-06 (MAX-T)=   0.071 
ITERATION  58 : L=  119.2642019647 DL=  7.20e-06 (MAX-T)=   0.054 
ITERATION  59 : L=  119.2642107928 DL=  8.83e-06 (MAX-T)=   0.068 
ITERATION  60 : L=  119.2642164334 DL=  5.64e-06 (MAX-T)=   0.049 
ITERATION  61 : L=  119.2642201776 DL=  3.74e-06 (MAX-T)=   0.047 
ITERATION  62 : L=  119.2642245180 DL=  4.34e-06 (MAX-T)=   0.053 
ITERATION  63 : L=  119.2642283510 DL=  3.83e-06 (MAX-T)=   0.044 
ITERATION  64 : L=  119.2642314221 DL=  3.07e-06 (MAX-T)=   0.045 
ITERATION  65 : L=  119.2642343649 DL=  2.94e-06 (MAX-T)=   0.045 
ITERATION  66 : L=  119.2642362558 DL=  1.89e-06 (MAX-T)=   0.034 
ITERATION  67 : L=  119.2642386987 DL=  2.44e-06 (MAX-T)=   0.038 
ITERATION  68 : L=  119.2642407781 DL=  2.08e-06 (MAX-T)=   0.033 
ITERATION  69 : L=  119.2642423550 DL=  1.58e-06 (MAX-T)=   0.026 
ITERATION  70 : L=  119.2642439301 DL=  1.58e-06 (MAX-T)=   0.028 
ITERATION  71 : L=  119.2642448623 DL=  9.32e-07 (MAX-T)=   0.025 
LOCALIZATION SUM CONVERGED


--------------------------------------------------------------------------------
                    LOCALIZED MOLECULAR ORBITAL COMPOSITIONS
--------------------------------------------------------------------------------

The Mulliken populations for each LMO on each atom are computed
The LMO`s will be ordered according to atom index and type
  (A) Strongly localized MO`s have populations of >=0.950 on one atom
  (B) Two center bond orbitals have populations of >=0.850 on two atoms
  (C) Other MO`s are considered to be `delocalized`

FOUND  -  12 strongly local MO`s
       -   0 two center bond MO`s
       -   0 significantly delocalized MO`s

Rather strongly localized orbitals:
MO  26:   2Ar -   1.007248
MO  25:   2Ar -   1.007247
MO  24:   2Ar -   1.001024
MO  23:   2Ar -   1.001022
MO  22:   1Ar -   1.007246
MO  21:   1Ar -   1.007250
MO  20:   1Ar -   1.001020
MO  19:   1Ar -   1.001026
MO  18:   0Ar -   1.007246
MO  17:   0Ar -   1.001020
MO  16:   0Ar -   1.001030
MO  15:   0Ar -   1.007245
Localized MO's were stored in: AR3LD_2.8_2.8_2.8.proc0.loc

Localizing the core orbitals
Localization sum:   140.442335415 
------------------------------------------------------------------------------
                           ORCA ORBITAL LOCALIZATION
------------------------------------------------------------------------------

Input orbitals are from                  ... AR3LD_2.8_2.8_2.8.proc0.loc
Output orbitals are to                   ... AR3LD_2.8_2.8_2.8.proc0.loc
Max. number of iterations                ... 128
Localizations seeded randomly            ... on
Convergence tolerance                    ... 2.000e-07
Using relative localization threshhold   ... 1.000e-08
Threshold for strong local MOs           ... 9.500e-01
Threshold for bond MOs                   ... 8.500e-01
Operator                                 ... 0
Orbital range for localization           ... 0 to 14
Localization criterion                   ... FOSTER-BOYS
Doing the dipole integrals     ... o.k.
Entering Jacobi type localization:
Using Cholesky decomposition as initial guess.
Initial value of the localization sum :   139.985831
ITERATION   0 : L=  140.4376971615 DL=  4.52e-01 (MAX-T)=  45.000 
ITERATION   1 : L=  140.4418027689 DL=  4.11e-03 (MAX-T)=  12.893 
ITERATION   2 : L=  140.4423181176 DL=  5.15e-04 (MAX-T)=   3.459 
ITERATION   3 : L=  140.4423352373 DL=  1.71e-05 (MAX-T)=   0.565 
ITERATION   4 : L=  140.4423354155 DL=  1.78e-07 (MAX-T)=   0.078 
LOCALIZATION SUM CONVERGED


--------------------------------------------------------------------------------
                    LOCALIZED MOLECULAR ORBITAL COMPOSITIONS
--------------------------------------------------------------------------------

The Mulliken populations for each LMO on each atom are computed
The LMO`s will be ordered according to atom index and type
  (A) Strongly localized MO`s have populations of >=0.950 on one atom
  (B) Two center bond orbitals have populations of >=0.850 on two atoms
  (C) Other MO`s are considered to be `delocalized`

FOUND  -  15 strongly local MO`s
       -   0 two center bond MO`s
       -   0 significantly delocalized MO`s

Rather strongly localized orbitals:
MO  14:   2Ar -   1.000025
MO  13:   2Ar -   1.000099
MO  12:   2Ar -   1.000001
MO  11:   2Ar -   1.000048
MO  10:   2Ar -   1.000041
MO   9:   1Ar -   1.000046
MO   8:   1Ar -   1.000022
MO   7:   1Ar -   1.000054
MO   6:   1Ar -   1.000001
MO   5:   1Ar -   1.000091
MO   4:   0Ar -   1.000023
MO   3:   0Ar -   1.000048
MO   2:   0Ar -   1.000050
MO   1:   0Ar -   1.000001
MO   0:   0Ar -   1.000093
Localized MO's were stored in: AR3LD_2.8_2.8_2.8.proc0.loc

Warning: reference  - re-canonicalizations have been set to INT 1 VIRT 1
Warning: internal orbitals are localized - no re-canonicalization of internal orbitals
Warning: UsePNO is turned on - no re-canonicalization of internal and virtual orbitals
Fock densities were made 
Making Fock matrix and reference energy:

--------------------------
CLOSED-SHELL FOCK OPERATOR
--------------------------

Time needed for Fock operator              ...            1.068 sec
Reference energy                           ...  -1580.365310328

--------------
DLPNO SETTINGS (2015 fully linear scaling implementation)
--------------

TCutMKN:           1.000e-03
TCutPAO:           1.000e-03
TCutPNO:           3.330e-07
TCutPNOSingles:    9.990e-09
TCutEN:            9.700e-01
TCutPAOExt:        1.000e-01
TCutPairs:         1.000e-05
TCutPre:           1.000e-07
TCutOSV:           1.000e-06
TCutDOij:          1.000e-05
TCutDO:            1.000e-02
TCutC:             1.000e-04
TCutCPAO:          1.000e-03
TCutCMO:           1.000e-03
TScaleDOMP2PreScr: 2.000e+00
TScaleMKNMP2PreScr:1.000e+01
TScalePNOMP2PreScr:1.000e+00
PAO overlap thresh 1.000e-08
Using PNOs for Singles Fock computation
Use new domains
Use fully linear algorithm

--------------------------
Mulliken population of the LMOs            ... ok
Performing proximity check                 ... No problems found
Calculating differential overlap integrals ... ok

------------------------
PRESCREENING OF HF PAIRS
------------------------

   .... Finished loop over pairs

                  ============================================
                    30 of   78 PAIRS WERE SKIPPED as HF PAIRS
                  ============================================

Total time spent in skipping HF pairs                 ...     0.000 sec
--------------------------
ELECTRON PAIR PRESCREENING
--------------------------

Dipole-based pair screening          .... used

   TCutDOij = 1.000000e-05
   TCutPre  = 1.000000e-07
   .... Finished loop over pairs
Total time spent in the prescreening                  ...     0.000 sec
sum of pair energies estimated for screened out pairs ...       0.000000000000 Eh
Thresholds for map construction and integral transformation for crude MP2:
   TCutMKN                    ...     1.0e-02
   TCutDO                     ...     2.0e-02
   TCutPairs                  ...     1.0e-05
   TCutPNO_CrudeMP2           ...     3.3e-07
   TCutPNOSingles_CrudeMP2    ...     1.0e-08
--------------------------------
LOCAL RI TRANSFORMATION (IAVPAO)
--------------------------------

Orbital window:      15 to 26
Number of PAOs:      81
Basis functions:     81 (33 shells)
Aux. functions:     276 (84 shells)
Use SHARK:           on
Have SHARK:         yes

Processing maps (0.0 sec)
Average map sizes:
   Aux shells -> MOs              12.0
   Aux shells -> PAOs             81.0
   MOs        -> AO shells        33.0
   PAOs       -> AO shells        33.0

Calculating integrals (0.1 sec, 2.050 MB)
Sorting integrals (0.0 sec, 2.047 MB)
Total time for the integral transformation: 0.1 sec
--------------------------------
INITIAL GUESS AND PNO GENERATION
--------------------------------

Populations of internal orbitals onto Fragments:
  15:      1.007    0.004    0.004  assigned to fragment   1
  16:      1.001    0.000    0.001  assigned to fragment   1
  17:      1.001    0.001    0.000  assigned to fragment   1
  18:      1.007    0.004    0.004  assigned to fragment   1
  19:      0.001    1.001    0.000  assigned to fragment   2
  20:      0.000    1.001    0.001  assigned to fragment   2
  21:      0.004    1.007    0.004  assigned to fragment   2
  22:      0.004    1.007    0.004  assigned to fragment   2
  23:      0.000    0.001    1.001  assigned to fragment   3
  24:      0.001    0.000    1.001  assigned to fragment   3
  25:      0.004    0.004    1.007  assigned to fragment   3
  26:      0.004    0.004    1.007  assigned to fragment   3

Summary assignment:
   4 orbitals assigned to fragment   1
   4 orbitals assigned to fragment   2
   4 orbitals assigned to fragment   3

PNO truncation parameters                   .... 
    PAOOverlapThresh   =        1.000e-08

Pair selection                          .... 
  modified with fragment specific keywords
  Pairs will be selected according to these
  intra(inter)fragment cutoffs
  1 <-> 1
    Intrafragment pairs 1 <-> 1 neglected for CCSD
  1 <-> 2
    TCutPairs          =        1.000e-05
    TCutPNO            =        3.330e-07
    TCutMKN            =        1.000e-02
    TCutDO             =        2.000e-02
    TCutPNOSingles     =        9.990e-09
    TCutMP2Pairs       =        1.000e-06
  1 <-> 3
    TCutPairs          =        1.000e-05
    TCutPNO            =        3.330e-07
    TCutMKN            =        1.000e-02
    TCutDO             =        2.000e-02
    TCutPNOSingles     =        9.990e-09
    TCutMP2Pairs       =        1.000e-06
  2 <-> 2
    Intrafragment pairs 2 <-> 2 neglected for CCSD
  2 <-> 3
    TCutPairs          =        1.000e-05
    TCutPNO            =        3.330e-07
    TCutMKN            =        1.000e-02
    TCutDO             =        2.000e-02
    TCutPNOSingles     =        9.990e-09
    TCutMP2Pairs       =        1.000e-06
  3 <-> 3
    Intrafragment pairs 3 <-> 3 neglected for CCSD

Type of local MP2 treatment                 .... semi-local MP2
Strategy for PNO selection                  .... occupation number selection
Pair density normalization                  .... MP2 norm
Spin component scaling                      .... not used

   .... Finished loop over pairs
Making pair pair interaction lists          ... done

                       ===========================
                         48 OF   60 PAIRS ARE KEPT CCSD PAIRS
                          0 OF   60 PAIRS ARE KEPT MP2 PAIRS
                         12 OF   60 PAIRS ARE SKIPPED
                       ===========================

Total time spent in the initial guess                 ...     0.134 sec
SL-MP2 correlation energy (all non-screened pairs)    ...      -0.010111778954 Eh

Initial PNO correlation energy                        ...      -0.009908105667 Eh
sum of pair energies prescreened and skipped MP2 pairs...       0.000000000000 Eh
sum of pair energies of crude MP2 skipped pairs only  ...       0.000000000000 Eh
sum of MP2 pair energies for pairs that were not kept ...       0.000000000000 Eh
sum of PNO error estimates for the kept pairs         ...      -0.000203673286 Eh
                                                          --------------------
sum of all corrections                                         -0.000203673286
Initial total correlation energy                               -0.010111778954
Thresholds for map construction and integral transformation for fine MP2 and CCSD(T) calculation:
   TCutMKN   ...     1.0e-03
   TCutDO    ...     1.0e-02
   TCutPairs ...     1.0e-05
   TCutCMO   ...     1.0e-03
   TCutCPAO  ...     1.0e-03

--------------------------------
LOCAL RI TRANSFORMATION (IAVPAO)
--------------------------------

Orbital window:      15 to 26
Number of PAOs:      81
Basis functions:     81 (33 shells)
Aux. functions:     276 (84 shells)
Use SHARK:           on
Have SHARK:         yes

Processing maps (0.0 sec)
Average map sizes:
   Aux shells -> MOs              12.0
   Aux shells -> PAOs             81.0
   MOs        -> AO shells        33.0
   PAOs       -> AO shells        33.0

Calculating integrals (0.1 sec, 2.050 MB)
Sorting integrals (0.0 sec, 2.047 MB)
Total time for the integral transformation: 0.1 sec
--------------------------------
INITIAL GUESS AND PNO GENERATION
--------------------------------

Populations of internal orbitals onto Fragments:
  15:      1.007    0.004    0.004  assigned to fragment   1
  16:      1.001    0.000    0.001  assigned to fragment   1
  17:      1.001    0.001    0.000  assigned to fragment   1
  18:      1.007    0.004    0.004  assigned to fragment   1
  19:      0.001    1.001    0.000  assigned to fragment   2
  20:      0.000    1.001    0.001  assigned to fragment   2
  21:      0.004    1.007    0.004  assigned to fragment   2
  22:      0.004    1.007    0.004  assigned to fragment   2
  23:      0.000    0.001    1.001  assigned to fragment   3
  24:      0.001    0.000    1.001  assigned to fragment   3
  25:      0.004    0.004    1.007  assigned to fragment   3
  26:      0.004    0.004    1.007  assigned to fragment   3

Summary assignment:
   4 orbitals assigned to fragment   1
   4 orbitals assigned to fragment   2
   4 orbitals assigned to fragment   3

PNO truncation parameters                   .... 
    PAOOverlapThresh   =        1.000e-08

Pair selection                          .... 
  modified with fragment specific keywords
  Pairs will be selected according to these
  intra(inter)fragment cutoffs
  1 <-> 1
    Intrafragment pairs 1 <-> 1 neglected for CCSD
  1 <-> 2
    TCutPairs          =        1.000e-05
    TCutPNO            =        3.330e-07
    TCutMKN            =        1.000e-03
    TCutDO             =        1.000e-02
    TCutPNOSingles     =        9.990e-09
    TCutMP2Pairs       =        1.000e-06
  1 <-> 3
    TCutPairs          =        1.000e-05
    TCutPNO            =        3.330e-07
    TCutMKN            =        1.000e-03
    TCutDO             =        1.000e-02
    TCutPNOSingles     =        9.990e-09
    TCutMP2Pairs       =        1.000e-06
  2 <-> 2
    Intrafragment pairs 2 <-> 2 neglected for CCSD
  2 <-> 3
    TCutPairs          =        1.000e-05
    TCutPNO            =        3.330e-07
    TCutMKN            =        1.000e-03
    TCutDO             =        1.000e-02
    TCutPNOSingles     =        9.990e-09
    TCutMP2Pairs       =        1.000e-06
  3 <-> 3
    Intrafragment pairs 3 <-> 3 neglected for CCSD

Type of local MP2 treatment                 .... semi-local MP2
Strategy for PNO selection                  .... occupation number selection
Pair density normalization                  .... MP2 norm
Spin component scaling                      .... not used

   .... Finished loop over pairs

 PNO Occupation Number Statistics: 
  | Av. % of trace(Dij) retained        ...  98.765628708018
  | sigma^2 in % of trace(Dij) retained ...   1.41e-01
  | Av. % of trace(Di) retained         ...  99.999795150646
  | sigma^2 in % of trace(Di) retained  ...   4.70e-11
 Distributions of % trace(Dij) recovered:
  |   [90.0, 99.0) ...    30 ( 62.5 % of all pairs)
  |   [99.0, 99.9) ...    18 ( 37.5 % of all pairs)
 Distributions of % trace(Di) recovered :
  |       >= 99.9  ...    12 (100.0 % of all I-pairs )

Making pair pair interaction lists          ... done

                       ===========================
                         48 OF   60 PAIRS ARE KEPT
                       ===========================

Total time spent in the initial guess                 ...     0.201 sec
SL-MP2 correlation energy (all non-screened pairs)    ...      -0.010108565353 Eh

Initial PNO correlation energy                        ...      -0.009904611200 Eh
sum of pair energies estimated for screened out pairs ...       0.000000000000 Eh
sum of MP2 pair energies for pairs that were not kept ...       0.000000000000 Eh
sum of PNO error estimates for the kept pairs         ...      -0.000203954153 Eh
                                                          --------------------
sum of all corrections                                         -0.000203954153
Initial total correlation energy                               -0.010108565353
Thresholds for map construction and integral transformation for fine MP2 and CCSD(T) calculation:
   TCutMKN   ...     1.0e-03
   TCutDO    ...     1.0e-02
   TCutPairs ...     1.0e-05
   TCutCMO   ...     1.0e-03
   TCutCPAO  ...     1.0e-03

Time for aux screen maps:            0.000
Time for maps after fine MP2:            0.001
-----------------------------
LOCAL RI TRANSFORMATION (IJV)
-----------------------------

Orbital window:      15 to 26
Basis functions:     81 (33 shells)
Aux. functions:     276 (84 shells)
Use SHARK:           on

Processing maps (0.0 sec)
Average map sizes:
   Aux shells -> MOs(i)           12.0
   Aux shells -> MOs(j)           12.0
   MOs        -> AO shells        33.0

Calculating integrals NOTE: Switching SHARK to General Contraction for MDCI
      If that is not desired please turn off the PGCFlag in the input (%shark PGCFlag 0 end)
(0.5 sec, 0.306 MB)
Sorting integrals (0.0 sec, 0.303 MB)
Total time for the integral transformation: 0.5 sec
--------------------------------
LOCAL RI TRANSFORMATION (VABPAO)
--------------------------------

Number of PAOs:      81
Basis functions:     81 (33 shells)
Aux. functions:     276 (84 shells)
Use SHARK:           on

Processing maps (0.0 sec)
Average map sizes:
   Aux shells -> PAOs             81.0
   PAOs       -> AO shells        33.0

Calculating integrals NOTE: Switching SHARK to General Contraction for MDCI
      If that is not desired please turn off the PGCFlag in the input (%shark PGCFlag 0 end)
(0.5 sec, 13.819 MB)
Finished


-------------------------------------
Pair Pair Term precalculation with     
RI-(ij|mn) and (im|jn) transformation  
ON THE FLY                             
-------------------------------------

   IBatch   1 (of   1)              ... done (    0.797 sec)
Total EXT                           ...           0.797 sec

IAVPA Available = YES
VABPAO Available= YES
IJV Available   = YES
IJK Available   = NO
PNO3i Available = YES
PNO3j Available = YES
PNO4 Available  = YES
---------------------
RI-PNO TRANSFORMATION
---------------------

Total Number of PNOs                   ...   522
Average number of PNOs per pair        ...    10
Maximal number of PNOs per pair        ...    13
   #pairs with  1 -  5 PNOs   :    0
   #pairs with  6 - 10 PNOs   :   21
   #pairs with 11 - 15 PNOs   :   27
   #pairs with 16 - 20 PNOs   :    0
   #pairs with 21 - 25 PNOs   :    0
   #pairs with 26 - 30 PNOs   :    0
   #pairs with 31 - 35 PNOs   :    0
   #pairs with 36 - 40 PNOs   :    0
   #pairs with 41 - 45 PNOs   :    0
   #pairs with 46 - 50 PNOs   :    0

Generation of (ij|ab)[P] integrals            ... on
Generation of (ia|bc)[P],(ja|bc)[P] integrals ... on
Storage of 3 and 4 external integrals         ... on
Generation of ALL (ka|bc)[P] integrals        ... on
Keep RI integrals in memory                   ... off

Ibatch:  1 (of  1)
Starting 2-4 index PNO integral generation ... done

Timings:
Total PNO integral transformation time     ...          0.501 sec
Size of the 3-external file                ...         0 MB
Size of the 4-external file                ...         0 MB
Size of the IKJL file                      ...         0 MB
Size of the all 3-external file            ...         3 MB
Size of the 1-external file                ...         0 MB

Making pair/pair overlap matrices          ... done (    0.047 sec)
Size of the pair overlap file              ... 2 MB
Redoing the guess amplitudes               ... done (    0.000 sec)

-------------------------
FINAL STARTUP INFORMATION
-------------------------

E(0)                                       ...  -1580.365310328
E(SL-MP2)                                  ...     -0.010108565
E(SL-MP2) including corrections            ...     -0.010108565
Initial E(tot)                             ...  -1580.375418894
<T|T>                                      ...      0.003583697
Number of pairs included                   ... 48
Total number of pairs                      ... 78

------------------------------------------------
                  RHF COUPLED CLUSTER ITERATIONS
------------------------------------------------

Number of PNO amplitudes to be optimized   ...         5898
Number of non-PNO amplitudes               ...       139968
Untruncated number of regular amplitudes   ...       227448

Iter       E(tot)           E(Corr)          Delta-E          Residual     Time
  0  -1580.375418585     -0.009904303      0.000204263      0.001077053    0.11
                           *** Turning on DIIS ***
  1  -1580.374538921     -0.009024638      0.000879664      0.000220982    0.09
  2  -1580.374646527     -0.009132244     -0.000107606      0.000058374    0.09
  3  -1580.374651783     -0.009137501     -0.000005256      0.000015397    0.09
  4  -1580.374653633     -0.009139351     -0.000001850      0.000002981    0.09
  5  -1580.374653868     -0.009139586     -0.000000235      0.000000841    0.09
               --- The Coupled-Cluster iterations have converged ---

----------------------
COUPLED CLUSTER ENERGY
----------------------

E(0)                                       ...  -1580.365310328
E(CORR)(strong-pairs)                      ...     -0.009139586
E(CORR)(weak-pairs)                        ...     -0.000203954
E(CORR)(corrected)                         ...     -0.009343540
E(TOT)                                     ...  -1580.374653868
Singles Norm <S|S>**1/2                    ...      0.004164750  
T1 diagnostic                              ...      0.000850126  

------------------
LARGEST AMPLITUDES
------------------
  25-> 28  15-> 28       0.001962
  26-> 28  18-> 28       0.001961
  26-> 28  21-> 28       0.001954
  21-> 28  18-> 28       0.001954
  25-> 28  22-> 28       0.001954
  22-> 28  15-> 28       0.001953
  25-> 27  15-> 27       0.001545
  25-> 28  15-> 32       0.001544
  26-> 27  18-> 27       0.001544
  22-> 32  15-> 28       0.001543
  21-> 32  18-> 28       0.001541
  26-> 28  18-> 32       0.001541
  26-> 27  21-> 27       0.001539
  21-> 27  18-> 27       0.001539
  25-> 27  22-> 27       0.001539
  22-> 27  15-> 27       0.001538


 ===========================================================
         LOCAL ENERGY DECOMPOSITION FOR DLPNO-CC METHODS
 ===========================================================

Maximum Iterations for the Localization .. 600
Tolerance for the Localization          ..  1.00e-06
Number of fragments = 3
Fragment  1:  0
Fragment  2:  1
Fragment  3:  2

Populations of internal orbitals onto Fragments:
   0:      1.000    0.000    0.000  assigned to fragment   1
   1:      1.000    0.000    0.000  assigned to fragment   1
   2:      1.000    0.000    0.000  assigned to fragment   1
   3:      1.000    0.000    0.000  assigned to fragment   1
   4:      1.000    0.000    0.000  assigned to fragment   1
   5:      0.000    1.000    0.000  assigned to fragment   2
   6:      0.000    1.000    0.000  assigned to fragment   2
   7:      0.000    1.000    0.000  assigned to fragment   2
   8:      0.000    1.000    0.000  assigned to fragment   2
   9:      0.000    1.000    0.000  assigned to fragment   2
  10:      0.000    0.000    1.000  assigned to fragment   3
  11:      0.000    0.000    1.000  assigned to fragment   3
  12:      0.000    0.000    1.000  assigned to fragment   3
  13:      0.000    0.000    1.000  assigned to fragment   3
  14:      0.000    0.000    1.000  assigned to fragment   3
  15:      1.007    0.004    0.004  assigned to fragment   1
  16:      1.001    0.000    0.001  assigned to fragment   1
  17:      1.001    0.001    0.000  assigned to fragment   1
  18:      1.007    0.004    0.004  assigned to fragment   1
  19:      0.001    1.001    0.000  assigned to fragment   2
  20:      0.000    1.001    0.001  assigned to fragment   2
  21:      0.004    1.007    0.004  assigned to fragment   2
  22:      0.004    1.007    0.004  assigned to fragment   2
  23:      0.000    0.001    1.001  assigned to fragment   3
  24:      0.001    0.000    1.001  assigned to fragment   3
  25:      0.004    0.004    1.007  assigned to fragment   3
  26:      0.004    0.004    1.007  assigned to fragment   3

Summary assignment:
   9 orbitals assigned to fragment   1
   9 orbitals assigned to fragment   2
   9 orbitals assigned to fragment   3


--------------------------------
CORRELATION ENERGY DECOMPOSITION
--------------------------------


--------------------------------------------------
INTER- vs INTRA-FRAGMENT CORRELATION ENERGIES (Eh)
--------------------------------------------------

                                   Fragment   1            Fragment   2            Fragment   3            
                         ----------------------  ----------------------  ----------------------  
Intra strong pairs               0.000000000000         0.000000000000         0.000000000000  sum=        0.000000000000
Intra weak pairs                 0.000000000000         0.000000000000         0.000000000000  sum=        0.000000000000
Singles contribution            -0.000000000597        -0.000000000597        -0.000000000591  sum=       -0.000000001784
                         ----------------------  ----------------------  ----------------------  
                                -0.000000000597        -0.000000000597        -0.000000000591  sum=       -0.000000001784


Interaction correlation for Fragments   2 and   1:
--------------------------------------------------
Inter strong pairs               -0.003046489626 (   -1.912 kcal/mol)
Inter weak pairs                 -0.000068032062 (   -0.043 kcal/mol)
                          ----------------------
Total interaction                -0.003114521688 (   -1.954 kcal/mol)

Interaction correlation for Fragments   3 and   1:
--------------------------------------------------
Inter strong pairs               -0.003046590861 (   -1.912 kcal/mol)
Inter weak pairs                 -0.000067907073 (   -0.043 kcal/mol)
                          ----------------------
Total interaction                -0.003114497934 (   -1.954 kcal/mol)
Interaction correlation for Fragments   3 and   2:
--------------------------------------------------
Inter strong pairs               -0.003046503535 (   -1.912 kcal/mol)
Inter weak pairs                 -0.000068015019 (   -0.043 kcal/mol)
                          ----------------------
Total interaction                -0.003114518554 (   -1.954 kcal/mol)



Sum of INTRA-fragment correlation energies  =        -0.000000001784
Sum of INTER-fragment correlation energies  =        -0.009343538175
                                              ---------------------
Total correlation energy                    =        -0.009343539959

---------------------------------------------
DECOMPOSITION OF CCSD STRONG PAIRS INTO      
    DOUBLE EXCITATION TYPES (Eh)             
---------------------------------------------

Foster-Boys localization is used for localizing PNOs

Intra fragment contributions: 
INTRA Fragment 1                        0.000000000 
INTRA Fragment 2                        0.000000000 
INTRA Fragment 3                        0.000000000 

Charge transfer contributions: 
Charge Transfer 1 to 2                 -0.000289896 
Charge Transfer 1 to 3                 -0.000291646 
Charge Transfer 2 to 1                 -0.000291373 
Charge Transfer 2 to 3                 -0.000288990 
Charge Transfer 3 to 1                 -0.000288604 
Charge Transfer 3 to 2                 -0.000292363 

Dispersion contributions: 
Dispersion  2,1                        -0.002465220 
Dispersion  3,1                        -0.002466341 
Dispersion  3,2                        -0.002465151 

Singles contributions:                   
Singles energy                         -0.000000002 
 
Delocalized contributions: 
Delocalized correlation                 0.000000000 

#Time for LED analysis ..       0.0 (sec)



--------------------------------------------------------------------------------
                                    TIMINGS
--------------------------------------------------------------------------------


Total execution time                   ...        5.195 sec

Localization of occupied MO's          ...        0.088 sec (  1.7%)
Fock Matrix Formation                  ...        1.068 sec ( 20.6%)
Global overlap, Fock, MKN matrices     ...        0.127 sec (  2.4%)
Differential overlap integrals         ...        0.203 sec (  3.9%)
Organizing maps                        ...        0.002 sec (  0.0%)
RI 3-index integral generations        ...        1.184 sec ( 22.8%)
RI-PNO integral transformation         ...        1.351 sec ( 26.0%)
Initial Guess                          ...        0.345 sec (  6.6%)
DIIS Solver                            ...        0.005 sec (  0.1%)
State Vector Update                    ...        0.000 sec (  0.0%)
Sigma-vector construction              ...        0.534 sec ( 10.3%)
  <D|H|D>(0-ext)                       ...        0.061 sec ( 11.4% of sigma)
  <D|H|D>(2-ext)                       ...        0.122 sec ( 22.8% of sigma)
  <D|H|D>(4-ext)                       ...        0.012 sec (  2.3% of sigma)
  <D|H|D>(4-ext-corr)                  ...        0.043 sec (  8.0% of sigma)
  CCSD doubles correction              ...        0.012 sec (  2.2% of sigma)
  <S|H|S>                              ...        0.033 sec (  6.2% of sigma)
  <S|H|D>(1-ext)                       ...        0.030 sec (  5.6% of sigma)
  <D|H|S>(1-ext)                       ...        0.001 sec (  0.2% of sigma)
  <S|H|D>(3-ext)                       ...        0.005 sec (  0.9% of sigma)
  Fock-dressing                        ...        0.132 sec ( 24.7% of sigma)
  Singles amplitudes                   ...        0.006 sec (  1.1% of sigma)
  (ik|jl)-dressing                     ...        0.036 sec (  6.7% of sigma)
  (ij|ab),(ia|jb)-dressing             ...        0.037 sec (  6.9% of sigma)
Local Energy Decomposition             ...        0.024 sec (  0.5% of ALL)


Maximum memory used throughout the entire MDCI-calculation: 152.7 MB
----------------------------   ----------------
Inter-fragment dispersion       -0.007600667
----------------------------   ----------------


-------------------------   --------------------
FINAL SINGLE POINT ENERGY     -1580.372910994843 
-------------------------   --------------------


------------------------------------------------------------------------------
                              ORCA PROPERTY CALCULATIONS
------------------------------------------------------------------------------

GBWName                                 ... AR3LD_2.8_2.8_2.8.gbw
Number of atoms                         ...      3
Number of basis functions               ...    150
Max core memory                         ...   1024 MB

Electric properties:
Dipole moment                           ... YES
Quadrupole moment                       ...  NO
Static polarizability (Dipole/Dipole)   ...  NO
Static polarizability (Dipole/Quad.)    ...  NO
Static polarizability (Quad./Quad.)     ...  NO
Static polarizability (Velocity)        ...  NO

Atomic electric properties:
Dipole moment                           ...  NO
Quadrupole moment                       ...  NO
Static polarizability                   ...  NO

Choice of electric origin               ... Center of mass
Position of electric origin             ...     2.645617     1.527447     0.000000

General magnetic properties:
Magnetizability                         ...  NO

EPR properties:
g-Tensor (aka g-matrix)                 ...  NO
Zero-Field splitting spin-orbit         ...  NO
Zero-field splitting spin-spin          ...  NO
Hyperfine couplings                     ...  NO (   0 nuclei)
Quadrupole couplings                    ...  NO (   0 nuclei)
Contact density                         ...  NO (   0 nuclei)

NMR properties:
Chemical shifts                         ...  NO (   0 nuclei)
Spin-rotation constants                 ...  NO (   0 nuclei)
Spin-spin couplings                     ...  NO (   0 nuclei,    0 pairs)

Choice of magnetic origin               ... GIAO
Position of magnetic origin             ...     0.000000     0.000000     0.000000

Properties with geometric perturbations:
SCF Hessian                             ...  NO
IR spectrum                             ...  NO
VCD spectrum                            ...  NO
X-ray spectroscopy properties:
SCF XES/XAS/RIXS spectra                ...  NO


-------------
DIPOLE MOMENT
-------------

Method             : SCF
Type of density    : Electron Density
Multiplicity       :   1
Irrep              :   0
Energy             : -1580.3653103282297252 Eh
Relativity type    : 
Basis              : AO
                                X                 Y                 Z
Electronic contribution:     -0.000000000      -0.000000003       0.000000000
Nuclear contribution   :      0.000000000      -0.000000000       0.000000000
                        -----------------------------------------
Total Dipole Moment    :     -0.000000000      -0.000000003       0.000000000
                        -----------------------------------------
Magnitude (a.u.)       :      0.000000003
Magnitude (Debye)      :      0.000000007



--------------------
Rotational spectrum 
--------------------
 
Rotational constants in cm-1:             0.107650             0.107650             0.053825 
Rotational constants in MHz :          3227.278879          3227.278879          1613.639439 

Dipole components along the rotational axes: 
x,y,z [a.u.] :    -0.000000    -0.000000     0.000000 
x,y,z [Debye]:    -0.000000    -0.000000     0.000000 

 

Dipole moment calculation done in   0.0 sec 

Maximum memory used throughout the entire PROP-calculation: 6.8 MB

--------------------------------
SUGGESTED CITATIONS FOR THIS RUN
--------------------------------

Below you find a list of papers that are relevant to this ORCA run
We neither can nor want to force you to cite these papers, but we appreciate if you do
You receive ORCA, which is the product of decades of hard work by many enthusiastic individuals, for free
The only thing we kindly ask in return is that you cite our papers,
We deeply appreciate it, if you show your appreciation for ORCA by not just citing the generic ORCA reference.

Please note that relegating all ORCA citations to the supporting information does *not* help us.
SI sections are not indexed - citations you put there will not count into any citation statistics
But we need these citations in order to attract the funding resources that allow us to do what we are doing

Therefore, if you are a happy ORCA user, please consider citing a few of the papers listed below in the main body of your paper

In addition to the list printed below, the program has created the file AR3LD_2.8_2.8_2.8.bibtex that contains the list in bibtex format
You can import this file easily into all common literature databanks and citation aid programs


List of essential papers. We consider these as the minimum necessary citations

  1. Neese,F.
     Software update: the ORCA program system, version 5.0
     WIRES Comput. Molec. Sci., 2022 12(1)e1606
     doi.org/10.1002/wcms.1606

List of papers to cite with high priority. The work reported in these papers was absolutely
necessary for this run to complete.
Our perspective: the developers of density functionals and basis sets usually get cited in chemistry papers
Good! But without the algorithms to do something with them, the functionals or basis sets would not do anything.
Hence, in our opinion, the algorithm design and method developments papers are equally worthy of getting cited

  1. Neese,F.; Hansen,A.; Liakos,D.G.
     Efficient and accurate approximations to the local coupled cluster singles doubles method using a truncated pair natural orbital basis
     J. Chem. Phys., 2009 131 064103
     doi.org/10.1063/1.3173827
  2. Neese,F.; Wennmohs,F.; Hansen,A.
     Efficient and accurate local approximations to coupled-electron pair approaches: An attempt to revive the pair natural orbital method
     J. Chem. Phys., 2009 130 114108
     doi.org/10.1063/1.3086717
  3. Riplinger,C.; Neese,F.
     An efficient and near linear scaling pair natural orbital based local coupled cluster method
     J. Chem. Phys., 2013 138(3)Art. No. 034106
     doi.org/10.1063/1.4773581
  4. Datta,D.; Kossmann,S.; Neese,F.
     Analytic energy derivatives for the calculation of the first-order molecular properties using the domain-based local pair-natural orbital coupled-cluster theory
     J. Chem. Phys., 2016 145 
     doi.org/10.1063/1.4962369
  5. Riplinger,C.; Pinski,P.; Becker,U.; Valeev,E.F.; Neese,F.
     Sparse maps-A systematic infrastructure for reduced-scaling electronic structure methods. II. Linear scaling domain based pair natural orbital coupled cluster theory
     J. Chem. Phys., 2016 144 
     doi.org/10.1063/1.4939030
  6. Schneider,W.B.; Bistoni,G.; Sparta,M.; Saitow,M.; Riplinger,C.; Auer,A.A.; Neese,F.
     Decomposition of Intermolecular Interaction Energies within the Local Pair Natural Orbital Coupled Cluster Framework
     J. Theo. Comp. Chem., 2016 12 4778-4792
     doi.org/10.1021/acs.jctc.6b00523
  7. Bistoni,G.; Riplinger,C.; Minenkov,Y.; Cavallo,L.; Auer,A.A.; Neese,F.
     Treating Subvalence Correlation Effects in Domain Based Pair Natural Orbital Coupled Cluster Calculations: An Out-of-the-Box Approach
     J. Theo. Comp. Chem., 2017 13 3220-3227
     doi.org/10.1021/acs.jctc.7b00352
  8. Altun,A.; Neese,F.; Bistoni,G.
     HFLD: A Nonempirical London Dispersion-Corrected Hartree-Fock Method for the Quantification and Analysis of Noncovalent Interaction Energies of Large Molecular Systems
     J. Chem. Theory Comput., 2019 15 5894-5907
     doi.org/10.1021/acs.jctc.9b00425
  9. Neese,F.
     The SHARK Integral Generation and Digestion System
     J. Comp. Chem., 2022  1-16
     doi.org/10.1002/jcc.26942
 10. Altun,A.; Neese,F.; Bistoni,G.
     Open-Shell Variant of the London Dispersion-Corrected Hartree–Fock Method (HFLD) for the Quantification and Analysis of Noncovalent Interaction Energies
     J. Chem. Theory Comput., 2022 XX XXXX-XXXX
     doi.org/10.1021/acs.jctc.1c01295

List of suggested additional citations. These are papers that are important in the 'surrounding' of 
of this run, or papers that preceded the highly important papers. If you like your results we are grateful for a citation.

  1. Neese,F.
     The ORCA program system
     WIRES Comput. Molec. Sci., 2012 2(1)73-78
     doi.org/10.1002/wcms.81
  2. Neese,F.
     Software update: the ORCA program system, version 4.0
     WIRES Comput. Molec. Sci., 2018 8(1)1-6
     doi.org/10.1002/wcms.1327
  3. Neese,F.; Wennmohs,F.; Becker,U.; Riplinger,C.
     The ORCA quantum chemistry program package
     J. Chem. Phys., 2020 152 Art. No. L224108
     doi.org/10.1063/5.0004608
  4. Bistoni,G.
     Finding chemical concepts in the Hilbert space: Coupled cluster analyses of noncovalent interactions
     WIRES Comput. Molec. Sci., 2020 10(3)e1442
     doi.org/10.1002/wcms.1442

List of optional additional citations

  1. Neese,F.
     Approximate second-order SCF convergence for spin unrestricted wavefunctions
     Chem. Phys. Lett., 2000 325(1-3)93-98
     doi.org/10.1016/s0009-2614(00)00662-x

Timings for individual modules:

Sum of individual times          ...       12.643 sec (=   0.211 min)
Startup calculation              ...        1.453 sec (=   0.024 min)  11.5 %
SCF iterations                   ...        5.802 sec (=   0.097 min)  45.9 %
Property integrals               ...        0.074 sec (=   0.001 min)   0.6 %
Property calculations            ...        0.085 sec (=   0.001 min)   0.7 %
MDCI module                      ...        5.229 sec (=   0.087 min)  41.4 %
                             ****ORCA TERMINATED NORMALLY****
TOTAL RUN TIME: 0 days 0 hours 0 minutes 12 seconds 709 msec
