
                                 *****************
                                 * O   R   C   A *
                                 *****************

                                            #,                                       
                                            ###                                      
                                            ####                                     
                                            #####                                    
                                            ######                                   
                                           ########,                                 
                                     ,,################,,,,,                         
                               ,,#################################,,                 
                          ,,##########################################,,             
                       ,#########################################, ''#####,          
                    ,#############################################,,   '####,        
                  ,##################################################,,,,####,       
                ,###########''''           ''''###############################       
              ,#####''   ,,,,##########,,,,          '''####'''          '####       
            ,##' ,,,,###########################,,,                        '##       
           ' ,,###''''                  '''############,,,                           
         ,,##''                                '''############,,,,        ,,,,,,###''
      ,#''                                            '''#######################'''  
     '                                                          ''''####''''         
             ,#######,   #######,   ,#######,      ##                                
            ,#'     '#,  ##    ##  ,#'     '#,    #''#        ,####,   ,####,        
            ##       ##  ##   ,#'  ##            #'  '#       #'       #'  '#        
            ##       ##  #######   ##           ,######,      #####,   #    #        
            '#,     ,#'  ##    ##  '#,     ,#' ,#      #,     #,   #   #,  ,#        
             '#######'   ##     ##  '#######'  #'      '#     '####' # '####'        



                #########################################################
                #                        -***-                          #
                #          Department of theory and spectroscopy        #
                #                                                       #
                #                      Frank Neese                      #
                #                                                       #
                #     Directorship, Architecture, Infrastructure        #
                #                    SHARK, DRIVERS                     #
                #        Core code/Algorithms in most modules           #
                #                                                       #
                #        Max Planck Institute fuer Kohlenforschung      #
                #                Kaiser Wilhelm Platz 1                 #
                #                 D-45470 Muelheim/Ruhr                 #
                #                      Germany                          #
                #                                                       #
                #                  All rights reserved                  #
                #                        -***-                          #
                #########################################################


                         Program Version 6.0.0  -   RELEASE  -


 With contributions from (in alphabetic order):
   Daniel Aravena         : Magnetic Suceptibility
   Michael Atanasov       : Ab Initio Ligand Field Theory (pilot matlab implementation)
   Alexander A. Auer      : GIAO ZORA, VPT2 properties, NMR spectrum
   Ute Becker             : All parallelization in ORCA, NUMFREQ, NUMCALC
   Giovanni Bistoni       : ED, misc. LED, open-shell LED, HFLD
   Martin Brehm           : Molecular dynamics
   Dmytro Bykov           : pre 5.0 version of the SCF Hessian
   Marcos Casanova-Páez   : Triplet and SCS-CIS(D). UHF-(DLPNO)-IP/EA/STEOM-CCSD. UHF-CVS-IP/STEOM-CCSD
   Vijay G. Chilkuri      : MRCI spin determinant printing, contributions to CSF-ICE
   Pauline Colinet        : FMM embedding
   Dipayan Datta          : RHF DLPNO-CCSD density
   Achintya Kumar Dutta   : EOM-CC, STEOM-CC
   Nicolas Foglia         : Exact transition moments, OPA infrastructure, MCD improvements
   Dmitry Ganyushin       : Spin-Orbit,Spin-Spin,Magnetic field MRCI
   Miquel Garcia          : C-PCM and meta-GGA Hessian, CCSD/C-PCM, Gaussian charge scheme
   Tiago L. C. Gouveia    : GS-ROHF, GS-ROCIS
   Yang Guo               : DLPNO-NEVPT2, F12-NEVPT2, CIM, IAO-localization
   Andreas Hansen         : Spin unrestricted coupled pair/coupled cluster methods
   Ingolf Harden          : AUTO-CI MPn and infrastructure 
   Benjamin Helmich-Paris : MC-RPA, TRAH-(SCF,CASSCF), AVAS, COSX integrals, SCF dyn. polar.
   Lee Huntington         : MR-EOM, pCC
   Robert Izsak           : Overlap fitted RIJCOSX, COSX-SCS-MP3, EOM
   Riya Kayal             : Wick's Theorem for AUTO-CI, AUTO-CI UHF-CCSDT
   Emily Kempfer          : AUTO-CI, RHF CISDT and CCSDT
   Christian Kollmar      : KDIIS, OOCD, Brueckner-CCSD(T), CCSD density, CASPT2, CASPT2-K, improved NEVPT2
   Axel Koslowski         : Symmetry handling
   Simone Kossmann        : Meta GGA functionals, TD-DFT gradient, OOMP2, (MP2 Hessian; deprecated post 5.0)
   Lucas Lang             : DCDCAS
   Marvin Lechner         : AUTO-CI (C++ implementation), FIC-MRCC
   Spencer Leger          : CASSCF response
   Dagmar Lenk            : GEPOL surface, SMD, ORCA-2-JSON
   Dimitrios Liakos       : Extrapolation schemes; Compound Job, initial MDCI parallelization
   Dimitrios Manganas     : Further ROCIS development; embedding schemes. LFT, Crystal Embedding
   Dimitrios Pantazis     : SARC Basis sets
   Anastasios Papadopoulos: AUTO-CI, single reference methods and gradients
   Taras Petrenko         : pre 6.0 DFT Hessian and TD-DFT gradient, (ASA, deprecated), ECA, 1-Electron XAS/XES, NRVS
   Peter Pinski           : DLPNO-MP2, DLPNO-MP2 Gradient
   Christoph Reimann      : Effective Core Potentials
   Marius Retegan         : Local ZFS, SOC
   Christoph Riplinger    : Optimizer, TS searches, QM/MM, DLPNO-CCSD(T), (RO)-DLPNO pert. Triples
   Michael Roemelt        : Original ROCIS implementation
   Masaaki Saitow         : Open-shell DLPNO-CCSD energy and density
   Barbara Sandhoefer     : DKH picture change effects
   Kantharuban Sivalingam : CASSCF convergence/infrastructure, NEVPT2 and variants, FIC-MRCI
   Bernardo de Souza      : ESD, SOC TD-DFT
   Georgi Stoychev        : AutoAux, RI-MP2 NMR, DLPNO-MP2 response, X2C
   Van Anh Tran           : RI-MP2 g-tensors
   Willem Van den Heuvel  : Paramagnetic NMR
   Zikuan Wang            : NOTCH, Electric field optimization 
   Frank Wennmohs         : Technical directorship and infrastructure
   Hang Xu                : AUTO-CI-Response properties 


 We gratefully acknowledge several colleagues who have allowed us to
 interface, adapt or use parts of their codes:
   Stefan Grimme, W. Hujo, H. Kruse, P. Pracht,  : VdW corrections, initial TS optimization,
                  C. Bannwarth, S. Ehlert,         DFT functionals, gCP, sTDA/sTD-DF
                  L. Wittmann, M. Mueller
   Ed Valeev, F. Pavosevic, A. Kumar             : LibInt (2-el integral package), F12 methods
   Garnet Chan, S. Sharma, J. Yang, R. Olivares  : DMRG
   Ulf Ekstrom                                   : XCFun DFT Library
   Mihaly Kallay                                 : mrcc  (arbitrary order and MRCC methods)
   Frank Weinhold                                : gennbo (NPA and NBO analysis)
   Simon Mueller                                 : openCOSMO-RS
   Christopher J. Cramer and Donald G. Truhlar   : smd solvation model
   Lars Goerigk                                  : TD-DFT with DH, B97 family of functionals
   V. Asgeirsson, H. Jonsson                     : NEB implementation
   FAccTs GmbH                                   : IRC, NEB, NEB-TS, DLPNO-Multilevel, CI-OPT
                                                   MM, QMMM, 2- and 3-layer-ONIOM, Crystal-QMMM,
                                                   LR-CPCM, SF, NACMEs, symmetry and pop. for TD-DFT,
                                                   nearIR, NL-DFT gradient (VV10), updates on ESD,
                                                   ML-optimized integration grids, MBIS, APM,
                                                   GOAT, DOCKER, SOLVATOR, interface openCOSMO-RS
   S Lehtola, MJT Oliveira, MAL Marques          : LibXC Library
   Liviu Ungur et al                             : ANISO software


 Your calculation uses the libint2 library for the computation of 2-el integrals
 For citations please refer to: http://libint.valeyev.net

 Your ORCA version has been built with support for libXC version: 6.2.2
 For citations please refer to: https://libxc.gitlab.io

 This ORCA versions uses:
   CBLAS   interface :  Fast vector & matrix operations
   LAPACKE interface :  Fast linear algebra routines
   SCALAPACK package :  Parallel linear algebra routines
   Shared memory     :  Shared parallel matrices
   BLAS/LAPACK       :  OpenBLAS 0.3.27  USE64BITINT DYNAMIC_ARCH NO_AFFINITY Haswell SINGLE_THREADED
        Core in use  :  Haswell
   Copyright (c) 2011-2014, The OpenBLAS Project


================================================================================

----- Orbital basis set information -----
Your calculation utilizes the basis: aug-cc-pVDZ 
    H, B-Ne : Obtained from the ccRepo (grant-hill.group.shef.ac.uk/ccrepo) Feb. 2017
              R. A. Kendall, T. H. Dunning, Jr., R. J. Harrison, J. Chem. Phys. 96, 6796 (1992)
         He : Obtained from the ccRepo (grant-hill.group.shef.ac.uk/ccrepo) Feb. 2017
              D. E. Woon, T. H. Dunning, Jr., J. Chem. Phys. 100, 2975 (1994)
  Li-Be, Na : Obtained from the ccRepo (grant-hill.group.shef.ac.uk/ccrepo) Feb. 2017
              B. P. Prascher, D. E. Woon, K. A. Peterson, T. H. Dunning, Jr., A. K. Wilson, Theor. Chem. Acc. 128, 69 (2011)
         Mg : Obtained from the Peterson Research Group Website (tyr0.chem.wsu.edu/~kipeters) Feb. 2017
              B. P. Prascher, D. E. Woon, K. A. Peterson, T. H. Dunning, Jr., A. K. Wilson, Theor. Chem. Acc. 128, 69 (2011)
      Al-Ar : Obtained from the ccRepo (grant-hill.group.shef.ac.uk/ccrepo) Feb. 2017
              D. E. Woon, T. H. Dunning, Jr., J. Chem. Phys. 98, 1358 (1993)
      Sc-Zn : Obtained from the ccRepo (grant-hill.group.shef.ac.uk/ccrepo) Feb. 2017
              N. B. Balabanov, K. A. Peterson, J. Chem. Phys. 123, 064107 (2005)
              N. B. Balabanov, K. A. Peterson, J. Chem. Phys. 125, 074110 (2006)
      Ga-Kr : Obtained from the ccRepo (grant-hill.group.shef.ac.uk/ccrepo) Feb. 2017
              A. K. Wilson, D. E. Woon, K. A. Peterson, T. H. Dunning, Jr., J. Chem. Phys. 110, 7667 (1999)

----- AuxC basis set information -----
Your calculation utilizes the auxiliary basis: aug-cc-pVDZ/C 
  H-He, B, Ne, Al-Ar, Ga-Ge, Se-Br : Obtained from the EMSL Basis Set Exchange (bse.pnl.gov) Feb. 2017
                                     F. Weigend, A. Kohn, C. Hattig, J. Chem. Phys. 116, 3175 (2002)
                            Be, Mg : Obtained from the TURBOMOLE 7.0 basis set library
                                     C. Haettig, Phys. Chem. Chem. Phys. 7, 59 (2005)
                               C-F : Obtained from the EMSL Basis Set Exchange (bse.pnl.gov) Feb. 2017
                                     C. Haettig, Phys. Chem. Chem. Phys. 7, 59 (2005)
                                     F. Weigend, A. Kohn, C. Hattig, J. Chem. Phys. 116, 3175 (2002)
                                As : Obtained from the EMSL Basis Set Exchange (bse.pnl.gov) Feb. 2017
                                     C. Haettig, G. Schmitz, J. Kossmann, Phys. Chem. Chem. Phys. 14, 6549 (2012)
                                Kr : Obtained from the TURBOMOLE 7.0 basis set library
                                     F. Weigend, A. Kohn, C. Hattig, J. Chem. Phys. 116, 3175 (2002)
                                     S function revised in Sep. 2009

================================================================================
                                        WARNINGS
                       Please study these warnings very carefully!
================================================================================


WARNING: Post HF methods need fully converged wavefunctions
  ===> : Setting SCFConvForced true
         You can overwrite this default with %scf ConvForced false 


================================================================================
                                       INPUT FILE
================================================================================
NAME = AR3LD_3.6_3.2_4.4.inp
|  1> # MP2 scan of the potential energy curve for Ar...Ar
|  2>                 ! HFLD aug-cc-pvdz aug-cc-pvdz/C verytightscf
|  3>                 *xyz 0 1
|  4>                 Ar(1)	0    0	0.00000000000000
|  5>                 Ar(2)	4.4	0    0.00000000000000
|  6>                 Ar(3)	1.8909090909090913	2.5815620871707416    0.00000000000000
|  7>                 **                         ****END OF INPUT****
================================================================================

                       ****************************
                       * Single Point Calculation *
                       ****************************

---------------------------------
CARTESIAN COORDINATES (ANGSTROEM)
---------------------------------
  Ar     0.000000    0.000000    0.000000
  Ar     4.400000    0.000000    0.000000
  Ar     1.890909    2.581562    0.000000

----------------------------
CARTESIAN COORDINATES (A.U.)
----------------------------
  NO LB      ZA    FRAG     MASS         X           Y           Z
   0 Ar   18.0000    1    39.948    0.000000    0.000000    0.000000
   1 Ar   18.0000    2    39.948    8.314795    0.000000    0.000000
   2 Ar   18.0000    3    39.948    3.573300    4.878445    0.000000

----------------------------------------------
CARTESIAN COORDINATES OF FRAGMENTS (ANGSTROEM)
----------------------------------------------

 FRAGMENT 1 
  Ar    0.000000    0.000000    0.000000

 FRAGMENT 2 
  Ar    4.400000    0.000000    0.000000

 FRAGMENT 3 
  Ar    1.890909    2.581562    0.000000

--------------------------------
INTERNAL COORDINATES (ANGSTROEM)
--------------------------------
 Ar     0   0   0     0.000000000000     0.00000000     0.00000000
 Ar     1   0   0     4.400000000000     0.00000000     0.00000000
 Ar     1   2   0     3.200000000000    53.77845338     0.00000000

---------------------------
INTERNAL COORDINATES (A.U.)
---------------------------
 Ar     0   0   0     0.000000000000     0.00000000     0.00000000
 Ar     1   0   0     8.314794989254     0.00000000     0.00000000
 Ar     1   2   0     6.047123628548    53.77845338     0.00000000

---------------------
BASIS SET INFORMATION
---------------------
There are 1 groups of distinct atoms

 Group   1 Type Ar  : 35s16p2d contracted to 5s4p2d pattern {11111111/7711/11}

Atom   0Ar   basis set group =>   1
Atom   1Ar   basis set group =>   1
Atom   2Ar   basis set group =>   1
---------------------------------
AUXILIARY/C BASIS SET INFORMATION
---------------------------------
There are 1 groups of distinct atoms

 Group   1 Type Ar  : 10s8p6d4f contracted to 10s8p6d4f pattern {1111111111/11111111/111111/1111}

Atom   0Ar   basis set group =>   1
Atom   1Ar   basis set group =>   1
Atom   2Ar   basis set group =>   1
------------------------------------------------------------------------------
                             ORCA STARTUP CALCULATIONS
------------------------------------------------------------------------------
------------------------------------------------------------------------------
                   ___                                                        
                  /   \      - P O W E R E D   B Y -                         
                 /     \                                                     
                 |  |  |   _    _      __       _____    __    __             
                 |  |  |  | |  | |    /  \     |  _  \  |  |  /  |          
                  \  \/   | |  | |   /    \    | | | |  |  | /  /          
                 / \  \   | |__| |  /  /\  \   | |_| |  |  |/  /          
                |  |  |   |  __  | /  /__\  \  |    /   |      \           
                |  |  |   | |  | | |   __   |  |    \   |  |\   \          
                \     /   | |  | | |  |  |  |  | |\  \  |  | \   \       
                 \___/    |_|  |_| |__|  |__|  |_| \__\ |__|  \__/        
                                                                              
                      - O R C A' S   B I G   F R I E N D -                    
                                      &                                       
                       - I N T E G R A L  F E E D E R -                       
                                                                              
 v1 FN, 2020, v2 2021, v3 2022-2024                                           
------------------------------------------------------------------------------


----------------------
SHARK INTEGRAL PACKAGE
----------------------

Number of atoms                             ...      3
Number of basis functions                   ...    150
Number of shells                            ...     72
Maximum angular momentum                    ...      2
Integral batch strategy                     ... SHARK/LIBINT Hybrid
RI-J (if used) integral strategy            ... SPLIT-RIJ (Revised 2003 algorithm where possible)
Printlevel                                  ...      1
Contraction scheme used                     ... PARTIAL GENERAL contraction
Prescreening option                         ... SCHWARTZ
   Thresh                                   ... 1.000e-12
   Tcut                                     ... 1.000e-14
   Tpresel                                  ... 1.000e-14 
Coulomb Range Separation                    ... NOT USED
Exchange Range Separation                   ... NOT USED
Multipole approximations                    ... NOT USED
Finite Nucleus Model                        ... NOT USED
CABS basis                                  ... NOT available
Auxiliary Coulomb fitting basis             ... NOT available
Auxiliary J/K fitting basis                 ... NOT available
Auxiliary Correlation fitting basis         ... AVAILABLE
   # of basis functions in Aux-C            ...    276
   # of shells in Aux-C                     ...     84
   Maximum angular momentum in Aux-C        ...      3
Auxiliary 'external' fitting basis          ... NOT available

Checking pre-screening integrals            ... done (  0.0 sec) Dimension = 72
Save PGC pre-screening integrals            ... done (  0.0 sec) Dimension = 72
Calculate PGC overlap integrals             ... done (  0.1 sec) Dimension = 33
Calculating pre-screening integrals (ORCA)  ... done (  0.3 sec) Dimension = 33
Check shell pair data                       ... done (  0.0 sec)
Shell pair information
Shell pair cut-off parameter TPreSel        ...   1.0e-14
Total number of shell pairs                 ...      2628
Shell pairs after pre-screening             ...      1749
Total number of primitive shell pairs       ...      2628
Primitive shell pairs kept                  ...      1749
          la=0 lb=0:    450 shell pairs
          la=1 lb=0:    663 shell pairs
          la=1 lb=1:    261 shell pairs
          la=2 lb=0:    204 shell pairs
          la=2 lb=1:    150 shell pairs
          la=2 lb=2:     21 shell pairs

Calculating one electron integrals          ... done (  0.0 sec)
Calculating RI/C V-Matrix + Cholesky decomp.... done (  0.0 sec)
Calculating Nuclear repulsion               ... done (  0.0 sec) ENN=    140.171826425830 Eh

Diagonalization of the overlap matrix:
Smallest eigenvalue                        ... 2.174e-02
Time for diagonalization                   ...    0.002 sec
Threshold for overlap eigenvalues          ... 1.000e-07
Number of eigenvalues below threshold      ... 0
Time for construction of square roots      ...    0.001 sec
Total time needed                          ...    0.003 sec

-------------------
DFT GRID GENERATION
-------------------

General Integration Accuracy     IntAcc      ... 4.388
Radial Grid Type                 RadialGrid  ... OptM3 with GC (2021)
Angular Grid (max. ang.)         AngularGrid ... 4 (Lebedev-302)
Angular grid pruning method      GridPruning ... 4 (adaptive)
Weight generation scheme         WeightScheme... mBecke (2022)
Basis function cutoff            BFCut       ... 1.0000e-12
Integration weight cutoff        WCut        ... 1.0000e-14
Partially contracted basis set               ... off
Rotationally invariant grid construction     ... off
Angular grids for H and He will be reduced by one unit

Total number of grid points                  ...    22081
Total number of batches                      ...      346
Average number of points per batch           ...       63
Average number of grid points per atom       ...     7360

---------------------
SHARK GRID GENERATION
---------------------

General Integration Accuracy     IntAcc      ... 4.388
Radial Grid Type                 RadialGrid  ... OptM3 with GC (2021)
Angular Grid (max. ang.)         AngularGrid ... 4 (Lebedev-302)
Angular grid pruning method      GridPruning ... 4 (adaptive)
Weight generation scheme         WeightScheme... mBecke (2022)
Basis function cutoff            BFCut       ... 1.0000e-12
Integration weight cutoff        WCut        ... 1.0000e-14
Partially contracted basis set               ... off
Rotationally invariant grid construction     ... off
Angular grids for H and He will be reduced by one unit
Core-polarized basis detected: some atoms will have their core
                               angular grid increased.
Steep s-basis detected: some atoms will have their radial
                        grid points doubled.

Total number of grid points                  ...    58017
Total number of batches                      ...      908
Average number of points per batch           ...       63
Average number of grid points per atom       ...    19339
Initializing property integral containers    ... done (  0.0 sec)

SHARK setup successfully completed in   3.4 seconds

Maximum memory used throughout the entire STARTUP-calculation: 27.5 MB
-------------------------------------------------------------------------------
                                 ORCA GUESS
                   Start orbitals & Density for SCF / CASSCF
-------------------------------------------------------------------------------

------------
SCF SETTINGS
------------
Hamiltonian:
 Ab initio Hamiltonian  Method          .... Hartree-Fock(GTOs)


General Settings:
 Integral files         IntName         .... AR3LD_3.6_3.2_4.4
 Hartree-Fock type      HFTyp           .... RHF
 Total Charge           Charge          ....    0
 Multiplicity           Mult            ....    1
 Number of Electrons    NEL             ....   54
 Basis Dimension        Dim             ....   81
 Nuclear Repulsion      ENuc            ....    140.1718264258 Eh

Convergence Acceleration:
 AO-DIIS                CNVDIIS         .... on
   Start iteration      DIISMaxIt       ....    12
   Startup error        DIISStart       ....  0.200000
   # of expansion vecs  DIISMaxEq       ....     5
   Bias factor          DIISBfac        ....   1.050
   Max. coefficient     DIISMaxC        ....  10.000
 MO-DIIS                CNVKDIIS        .... off
 Trust-Rad. Augm. Hess. CNVTRAH         .... auto
   Auto Start mean grad. ratio tolernc. ....  1.125000
   Auto Start start iteration           ....    50
   Auto Start num. interpolation iter.  ....    10
   Max. Number of Micro iterations      ....    24
   Max. Number of Macro iterations      .... Maxiter - #DIIS iter
   Number of Davidson start vectors     ....     2
   Converg. threshold    (grad. norm)   ....   2.000e-06
   Grad. Scal. Fac. for Micro threshold ....   0.100
   Minimum threshold for Micro iter.    ....   1.000e-02
   NR start threshold (gradient norm)   ....   1.000e-04
   Initial trust radius                 ....   0.400
   Minimum AH scaling param. (alpha)    ....   1.000
   Maximum AH scaling param. (alpha)    .... 1000.000
   Quad. conv. algorithm                .... NR
   White noise on init. David. guess    .... on
   Maximum white noise                  ....   0.010
   Pseudo random numbers                .... off
   Inactive MOs                         .... canonical
   Orbital update algorithm             .... Taylor
   Preconditioner                       .... Diag
   Full preconditioner red. dimension   ....   250
 SOSCF                  CNVSOSCF        .... on
   Start iteration      SOSCFMaxIt      ....   150
   Startup grad/error   SOSCFStart      ....  0.003300
   Hessian update       SOSCFHessUp     .... L-BFGS
 Level Shifting         CNVShift        .... on
   Level shift para.    LevelShift      ....    0.2500
   Turn off err/grad.   ShiftErr        ....    0.0010
 Zerner damping         CNVZerner       .... off
 Static damping         CNVDamp         .... on
   Fraction old density DampFac         ....    0.7000
   Max. Damping (<1)    DampMax         ....    0.9800
   Min. Damping (>=0)   DampMin         ....    0.0000
   Turn off err/grad.   DampErr         ....    0.1000

SCF Procedure:
 Maximum # iterations   MaxIter         ....   125
 SCF integral mode      SCFMode         .... Direct
   Integral package                     .... SHARK and LIBINT hybrid scheme
 Reset frequency        DirectResetFreq ....    20
 Integral Threshold     Thresh          ....  1.000e-12 Eh
 Primitive CutOff       TCut            ....  1.000e-14 Eh

Convergence Tolerance:
 Convergence Check Mode ConvCheckMode   .... Total+1el-Energy
 Convergence forced     ConvForced      .... 1
 Energy Change          TolE            ....  1.000e-09 Eh
 1-El. energy change                    ....  1.000e-06 Eh
 Orbital Gradient       TolG            ....  2.000e-06
 Orbital Rotation angle TolX            ....  2.000e-06
 DIIS Error             TolErr          ....  1.000e-08

------------------------------
INITIAL GUESS: MODEL POTENTIAL
------------------------------
Loading Hartree-Fock densities                     ... done
Calculating cut-offs                               ... done
Initializing the effective Hamiltonian             ... done
Setting up the integral package (SHARK)            ... done
Starting the Coulomb interaction                   ... done (   0.0 sec)
Making the grid                                    ... done (   0.1 sec)
Mapping shells                                     ... done
Starting the XC term evaluation                    ... done (   0.0 sec)
Transforming the Hamiltonian                       ... done (   0.0 sec)
Diagonalizing the Hamiltonian                      ... done (   0.0 sec)
Back transforming the eigenvectors                 ... done (   0.0 sec)
Now organizing SCF variables                       ... done
                      ------------------
                      INITIAL GUESS DONE (   0.1 sec)
                      ------------------
             **** ENERGY FILE WAS UPDATED (AR3LD_3.6_3.2_4.4.en.tmp) ****
Finished Guess after   0.2 sec
Maximum memory used throughout the entire GUESS-calculation: 6.7 MB

-------------------------------------------------------------------------------------------
                                      ORCA LEAN-SCF
                              memory conserving SCF solver
-------------------------------------------------------------------------------------------

----------------------------------------D-I-I-S--------------------------------------------
Iteration    Energy (Eh)           Delta-E    RMSDP     MaxDP     DIISErr   Damp  Time(sec)
-------------------------------------------------------------------------------------------
               ***  Starting incremental Fock matrix formation  ***
    1    -1580.3808955060301287     0.00e+00  1.06e-03  1.78e-02  9.26e-02  0.700   1.2
    2    -1580.3860823431573408    -5.19e-03  8.29e-04  1.29e-02  6.64e-02  0.700   1.4
                               ***Turning on AO-DIIS***
    3    -1580.3898525468148364    -3.77e-03  6.60e-04  9.47e-03  4.72e-02  0.700   1.5
    4    -1580.3925637272166114    -2.71e-03  1.62e-03  2.22e-02  3.32e-02  0.000   1.6
                              *** Initializing SOSCF ***
---------------------------------------S-O-S-C-F--------------------------------------
Iteration    Energy (Eh)           Delta-E    RMSDP     MaxDP     MaxGrad    Time(sec)
--------------------------------------------------------------------------------------
    5    -1580.3991814201729085    -6.62e-03  8.49e-05  1.04e-03  1.07e-03     1.8
               *** Restarting incremental Fock matrix formation ***
    6    -1580.3991903730432114    -8.95e-06  4.11e-05  5.65e-04  2.53e-04     1.4
    7    -1580.3991919753946149    -1.60e-06  1.51e-05  1.84e-04  6.08e-05     1.1
    8    -1580.3991920780927103    -1.03e-07  8.39e-07  1.41e-05  8.29e-06     0.9
    9    -1580.3991920786129413    -5.20e-10  1.65e-07  2.79e-06  1.24e-06     0.8
                 **** Energy Check signals convergence ****

               *****************************************************
               *                     SUCCESS                       *
               *           SCF CONVERGED AFTER   9 CYCLES          *
               *****************************************************

             **** ENERGY FILE WAS UPDATED (AR3LD_3.6_3.2_4.4.en.tmp) ****

----------------
TOTAL SCF ENERGY
----------------

Total Energy       :      -1580.39919207861294 Eh          -43004.84834 eV

Components:
Nuclear Repulsion  :        140.17182642582955 Eh            3814.26931 eV
Electronic Energy  :      -1720.57101850444246 Eh          -46819.11765 eV
One Electron Energy:      -2464.97291252699824 Eh          -67075.32299 eV
Two Electron Energy:        744.40189402255578 Eh           20256.20534 eV

Virial components:
Potential Energy   :      -3160.84424561368724 Eh          -86010.94464 eV
Kinetic Energy     :       1580.44505353507407 Eh           43006.09629 eV
Virial Ratio       :          1.99997098193553

---------------
SCF CONVERGENCE
---------------

  Last Energy change         ...    5.2023e-10  Tolerance :   1.0000e-09
  Last MAX-Density change    ...    2.7887e-06  Tolerance :   1.0000e-08
  Last RMS-Density change    ...    1.6520e-07  Tolerance :   1.0000e-09
  Last DIIS Error            ...    1.0650e-03  Tolerance :   1.0000e-08
  Last Orbital Gradient      ...    1.2350e-06  Tolerance :   2.0000e-06
  Last Orbital Rotation      ...    1.5984e-06  Tolerance :   2.0000e-06


----------------
ORBITAL ENERGIES
----------------

  NO   OCC          E(Eh)            E(eV) 
   0   2.0000    -118.610155     -3227.5464 
   1   2.0000    -118.608929     -3227.5131 
   2   2.0000    -118.608418     -3227.4991 
   3   2.0000     -12.322346      -335.3081 
   4   2.0000     -12.321305      -335.2798 
   5   2.0000     -12.320804      -335.2661 
   6   2.0000      -9.570937      -260.4384 
   7   2.0000      -9.570936      -260.4384 
   8   2.0000      -9.570932      -260.4383 
   9   2.0000      -9.569891      -260.4100 
  10   2.0000      -9.569882      -260.4097 
  11   2.0000      -9.569882      -260.4097 
  12   2.0000      -9.569401      -260.3967 
  13   2.0000      -9.569394      -260.3964 
  14   2.0000      -9.569387      -260.3963 
  15   2.0000      -1.281899       -34.8822 
  16   2.0000      -1.278617       -34.7929 
  17   2.0000      -1.274980       -34.6940 
  18   2.0000      -0.613083       -16.6828 
  19   2.0000      -0.602732       -16.4012 
  20   2.0000      -0.595482       -16.2039 
  21   2.0000      -0.592986       -16.1360 
  22   2.0000      -0.591784       -16.1033 
  23   2.0000      -0.589970       -16.0539 
  24   2.0000      -0.587742       -15.9933 
  25   2.0000      -0.581491       -15.8232 
  26   2.0000      -0.571199       -15.5431 
  27   0.0000       0.119269         3.2455 
  28   0.0000       0.125416         3.4128 
  29   0.0000       0.131267         3.5720 
  30   0.0000       0.134100         3.6490 
  31   0.0000       0.160281         4.3615 
  32   0.0000       0.169126         4.6021 
  33   0.0000       0.171577         4.6688 
  34   0.0000       0.179132         4.8744 
  35   0.0000       0.196787         5.3548 
  36   0.0000       0.205734         5.5983 
  37   0.0000       0.281399         7.6573 
*Only the first 10 virtual orbitals were printed.

                    ********************************
                    * MULLIKEN POPULATION ANALYSIS *
                    ********************************

-------------------------
MULLIKEN FRAGMENT CHARGES
-------------------------
 Fragment   0 :  -0.000699
 Fragment   1 :  -0.000510
 Fragment   2 :   0.001209
Sum of fragment charges:   -0.0000000

---------------------------------
MULLIKEN FRAGMENT OVERLAP CHARGES
---------------------------------
                  0          1          2    
      0      18.013633   0.002943  -0.028811
      1       0.002943  18.000714  -0.003350
      2      -0.028811  -0.003350  18.014871

-----------------------
MULLIKEN ATOMIC CHARGES
-----------------------
   0 Ar:   -0.000699
   1 Ar:   -0.000510
   2 Ar:    0.001209
Sum of atomic charges:   -0.0000000

--------------------------------
MULLIKEN REDUCED ORBITAL CHARGES
--------------------------------
  0 Ars       :     5.998182  s :     5.998182
      pz      :     3.999912  p :    12.002151
      px      :     4.000994
      py      :     4.001245
      dz2     :     0.000039  d :     0.000367
      dxz     :     0.000034
      dyz     :     0.000061
      dx2y2   :     0.000128
      dxy     :     0.000106

  1 Ars       :     5.999346  s :     5.999346
      pz      :     3.999976  p :    12.000865
      px      :     4.000564
      py      :     4.000324
      dz2     :     0.000057  d :     0.000299
      dxz     :     0.000015
      dyz     :     0.000015
      dx2y2   :     0.000060
      dxy     :     0.000152

  2 Ars       :     5.996704  s :     5.996704
      pz      :     3.999865  p :    12.001508
      px      :     4.001063
      py      :     4.000581
      dz2     :     0.000056  d :     0.000578
      dxz     :     0.000047
      dyz     :     0.000075
      dx2y2   :     0.000115
      dxy     :     0.000285



                     *******************************
                     * LOEWDIN POPULATION ANALYSIS *
                     *******************************

------------------------
LOEWDIN FRAGMENT CHARGES
------------------------
 Fragment   0 :   0.000607
 Fragment   1 :   0.001178
 Fragment   2 :  -0.001785

----------------------------
LOEWDIN FRAGMENT BOND ORDERS
----------------------------
                  0          1          2    
      0      17.999393   0.010641   0.134229
      1       0.010641  17.998822   0.064434
      2       0.134229   0.064434  18.001785

----------------------
LOEWDIN ATOMIC CHARGES
----------------------
   0 Ar:    0.000607
   1 Ar:    0.001178
   2 Ar:   -0.001785

-------------------------------
LOEWDIN REDUCED ORBITAL CHARGES
-------------------------------
  0 Ars       :     5.985798  s :     5.985798
      pz      :     3.999771  p :    12.008682
      px      :     4.003377
      py      :     4.005534
      dz2     :     0.001134  d :     0.004913
      dxz     :     0.000071
      dyz     :     0.000131
      dx2y2   :     0.000492
      dxy     :     0.003086

  1 Ars       :     5.992825  s :     5.992825
      pz      :     3.999943  p :    12.005089
      px      :     4.002528
      py      :     4.002618
      dz2     :     0.000214  d :     0.000908
      dxz     :     0.000009
      dyz     :     0.000009
      dx2y2   :     0.000035
      dxy     :     0.000640

  2 Ars       :     5.981429  s :     5.981429
      pz      :     3.999846  p :    12.014598
      px      :     4.004647
      py      :     4.010105
      dz2     :     0.001376  d :     0.005758
      dxz     :     0.000077
      dyz     :     0.000143
      dx2y2   :     0.000510
      dxy     :     0.003651



                      *****************************
                      * MAYER POPULATION ANALYSIS *
                      *****************************

  NA   - Mulliken gross atomic population
  ZA   - Total nuclear charge
  QA   - Mulliken gross atomic charge
  VA   - Mayer's total valence
  BVA  - Mayer's bonded valence
  FA   - Mayer's free valence

  ATOM       NA         ZA         QA         VA         BVA        FA
  0 Ar    18.0007    18.0000    -0.0007    -0.0020    -0.0020    -0.0000
  1 Ar    18.0005    18.0000    -0.0005     0.0053     0.0053    -0.0000
  2 Ar    17.9988    18.0000     0.0012    -0.0029    -0.0029    -0.0000

  Mayer bond orders larger than 0.100000
  => no bond orders to print

-------
TIMINGS
-------

Total SCF time: 0 days 0 hours 0 min 11 sec 

Total time                  ....      11.769 sec
Sum of individual times     ....      11.743 sec  ( 99.8%)

SCF preparation             ....       0.085 sec  (  0.7%)
Fock matrix formation       ....      11.590 sec  ( 98.5%)
  Startup                   ....       0.002 sec  (  0.0% of F)
  Coulomb+Exchange Fock     ....      11.578 sec  ( 99.9% of F)
Diagonalization             ....       0.000 sec  (  0.0%)
Density matrix formation    ....       0.008 sec  (  0.1%)
Total Energy calculation    ....       0.002 sec  (  0.0%)
Population analysis         ....       0.006 sec  (  0.1%)
Orbital Transformation      ....       0.009 sec  (  0.1%)
Orbital Orthonormalization  ....       0.000 sec  (  0.0%)
DIIS solution               ....       0.029 sec  (  0.2%)
SOSCF solution              ....       0.011 sec  (  0.1%)
Finished LeanSCF after  11.8 sec

Maximum memory used throughout the entire LEANSCF-calculation: 8.6 MB

------------------------------------------------------------------------------
                         ORCA PROPERTY INTEGRAL CALCULATIONS
------------------------------------------------------------------------------

GBWName                                   ... AR3LD_3.6_3.2_4.4.gbw
Number of atoms                           ...      3
Number of basis functions                 ...    150
Max core memory                           ...   1024 MB

Dipole integrals                          ... YES
Quadrupole integrals                      ...  NO
Linear momentum integrals                 ... YES
Angular momentum integrals                ... YES
Higher moments length integrals           ...  NO
Higher moments velocity integrals         ...  NO
Kinetic energy integrals                  ...  NO
GIAO right hand sides                     ...  NO
GIAO dipole derivative integrals          ...  NO
SOC integrals                             ...  NO
EPR diamagnetic integrals (GIAO)          ...  NO
EPR gauge integrals                       ...  NO
Field gradient integrals                  ...  NO (   0 nuclei)
Spin-dipole/Fermi contact integrals       ...  NO (   0 nuclei)
Contact density integrals                 ...  NO (   0 nuclei)
Nucleus-orbit integrals                   ...  NO (   0 nuclei)
Geometric perturbations                   ...  NO (   3 nuclei)

Choice of electric origin   ... Center of mass
Position of electric origin ... (  3.9627,  1.6261,  0.0000) 
Choice of magnetic origin   ... GIAO
Position of magnetic origin ... (  0.0000,  0.0000,  0.0000) 

Calculating integrals                     ... Electric Dipole (Length)     done (  0.0 sec)
Calculating integrals                     ... Linear Momentum              done (  0.0 sec)
Calculating integrals                     ... Angular Momentum  (ElOri)    done (  0.0 sec)

Property integrals calculated in   0.0 sec

Maximum memory used throughout the entire PROPINT-calculation: 6.8 MB


--------------------------------------------------------------------------------
                             ORCA-MATRIX DRIVEN CI
--------------------------------------------------------------------------------


Wavefunction type
-----------------
Correlation treatment                      ...      CCSD     
Single excitations                         ... ON
Orbital optimization                       ... OFF
Calculation of Z vector                    ... OFF
Calculation of Brueckner orbitals          ... OFF
Perturbative triple excitations            ... OFF
Calculation of F12 correction              ... OFF
Frozen core treatment                      ... chemical core (30 el)
Reference Wavefunction                     ... RHF
  Internal Orbitals:    15 ...   26 ( 12 MO's/ 24 electrons)
  Virtual  Orbitals:    27 ...   80 ( 54 MO's              )
Number of AO's                             ...     81
Number of electrons                        ...     54
Number of correlated electrons             ...     24

Algorithmic settings
--------------------
Integral transformation                    ... All integrals via the RI transformation
K(C) Formation                             ... RI-DLPNO
   PNO-Integral Storage                    ... ON DISK
   PNO occupation number cut-off           ... 3.330e-07
   Singles PNO occupation number cut-off   ... 9.990e-09
   PNO Mulliken prescreening cut-off       ... 1.000e-03
   Domain cut-off (Mulliken population)    ... 1.000e-03
   PNO Normalization                       ...    1
Maximum number of iterations               ...        50
Convergence tolerance (max. residuum)      ... 1.000e-06
Level shift for amplitude update           ... 2.000e-01
Maximum number of DIIS vectors             ...         7
DIIS turned on at iteration                ...         0
Damping before turning on DIIS             ...     0.500
Damping after turning on DIIS              ...     0.000
Pair specific amplitude update             ... OFF
Natural orbital iterations                 ... OFF
Perturbative natural orbital generation    ... OFF
Printlevel                                 ... 2

Singles Fock matrix elements calculated using PNOs.

Memory handling:
----------------
Maximum memory for working arrays          ...    512 MB
Data storage in matrix containers          ... UNCOMPRESSED
Data type for integral storage             ... DOUBLE
In-Core Storage of quantities:
   Amplitudes+Sigma Vector      ... NO
   J+K operators                ... NO
   DIIS vectors                 ... NO
   3-external integrals         ... NO
   4-external integrals         ... NO

Localization treatment:
-----------------------
Localization option                        ...    2
Localization threshhold                    ... -1.0e+00
Using relative localization threshhold     ... 1.0e-08
Neglect threshold for strong pairs         ... 1.000e-05 Eh
Prescreening threshold for very weak pairs ... 1.000e-07 Eh
Using randomized seed for localization     ... on

Initializing the integral package          ... done
Localizing the valence orbitals
Localizing the valence orbitals
------------------------------------------------------------------------------
                           ORCA ORBITAL LOCALIZATION
------------------------------------------------------------------------------

Input orbitals are from                  ... AR3LD_3.6_3.2_4.4.proc0.gbw
Output orbitals are to                   ... AR3LD_3.6_3.2_4.4.proc0.loc
Max. number of iterations                ... 128
Localizations seeded randomly            ... on
Convergence tolerance                    ... 2.000e-07
Using relative localization threshhold   ... 1.000e-08
Threshold for strong local MOs           ... 9.500e-01
Threshold for bond MOs                   ... 8.500e-01
Operator                                 ... 0
Orbital range for localization           ... 15 to 26
Localization criterion                   ... FOSTER-BOYS
Doing the dipole integrals     ... o.k.
Entering Jacobi type localization:
Using Cholesky decomposition as initial guess.
Initial value of the localization sum :   202.659428
ITERATION   0 : L=  209.4286553195 DL=  6.77e+00 (MAX-T)=  45.000 
ITERATION   1 : L=  209.4354261157 DL=  6.77e-03 (MAX-T)=   1.676 
ITERATION   2 : L=  209.4357885384 DL=  3.62e-04 (MAX-T)=   0.323 
ITERATION   3 : L=  209.4362320567 DL=  4.44e-04 (MAX-T)=   0.373 
ITERATION   4 : L=  209.4367115924 DL=  4.80e-04 (MAX-T)=   0.397 
ITERATION   5 : L=  209.4372433051 DL=  5.32e-04 (MAX-T)=   0.435 
ITERATION   6 : L=  209.4377605011 DL=  5.17e-04 (MAX-T)=   0.377 
ITERATION   7 : L=  209.4381748156 DL=  4.14e-04 (MAX-T)=   0.487 
ITERATION   8 : L=  209.4386542859 DL=  4.79e-04 (MAX-T)=   0.364 
ITERATION   9 : L=  209.4390027599 DL=  3.48e-04 (MAX-T)=   0.318 
ITERATION  10 : L=  209.4394446534 DL=  4.42e-04 (MAX-T)=   0.426 
ITERATION  11 : L=  209.4398405311 DL=  3.96e-04 (MAX-T)=   0.391 
ITERATION  12 : L=  209.4402137816 DL=  3.73e-04 (MAX-T)=   0.351 
ITERATION  13 : L=  209.4406323836 DL=  4.19e-04 (MAX-T)=   0.400 
ITERATION  14 : L=  209.4410230660 DL=  3.91e-04 (MAX-T)=   0.458 
ITERATION  15 : L=  209.4414154391 DL=  3.92e-04 (MAX-T)=   0.491 
ITERATION  16 : L=  209.4418255307 DL=  4.10e-04 (MAX-T)=   0.392 
ITERATION  17 : L=  209.4422473749 DL=  4.22e-04 (MAX-T)=   0.418 
ITERATION  18 : L=  209.4425980755 DL=  3.51e-04 (MAX-T)=   0.422 
ITERATION  19 : L=  209.4429325483 DL=  3.34e-04 (MAX-T)=   0.334 
ITERATION  20 : L=  209.4432982512 DL=  3.66e-04 (MAX-T)=   0.347 
ITERATION  21 : L=  209.4436080459 DL=  3.10e-04 (MAX-T)=   0.435 
ITERATION  22 : L=  209.4438855047 DL=  2.77e-04 (MAX-T)=   0.500 
ITERATION  23 : L=  209.4442834702 DL=  3.98e-04 (MAX-T)=   0.413 
ITERATION  24 : L=  209.4446195526 DL=  3.36e-04 (MAX-T)=   0.344 
ITERATION  25 : L=  209.4449822560 DL=  3.63e-04 (MAX-T)=   0.499 
ITERATION  26 : L=  209.4452340578 DL=  2.52e-04 (MAX-T)=   0.372 
ITERATION  27 : L=  209.4454611318 DL=  2.27e-04 (MAX-T)=   0.285 
ITERATION  28 : L=  209.4457379703 DL=  2.77e-04 (MAX-T)=   0.412 
ITERATION  29 : L=  209.4460592441 DL=  3.21e-04 (MAX-T)=   0.359 
ITERATION  30 : L=  209.4463099942 DL=  2.51e-04 (MAX-T)=   0.366 
ITERATION  31 : L=  209.4465215225 DL=  2.12e-04 (MAX-T)=   0.365 
ITERATION  32 : L=  209.4467864191 DL=  2.65e-04 (MAX-T)=   0.329 
ITERATION  33 : L=  209.4470280966 DL=  2.42e-04 (MAX-T)=   0.376 
ITERATION  34 : L=  209.4472641344 DL=  2.36e-04 (MAX-T)=   0.272 
ITERATION  35 : L=  209.4474924197 DL=  2.28e-04 (MAX-T)=   0.355 
ITERATION  36 : L=  209.4476981653 DL=  2.06e-04 (MAX-T)=   0.280 
ITERATION  37 : L=  209.4478096209 DL=  1.11e-04 (MAX-T)=   0.280 
ITERATION  38 : L=  209.4479839107 DL=  1.74e-04 (MAX-T)=   0.249 
ITERATION  39 : L=  209.4481700459 DL=  1.86e-04 (MAX-T)=   0.284 
ITERATION  40 : L=  209.4483125750 DL=  1.43e-04 (MAX-T)=   0.242 
ITERATION  41 : L=  209.4484888467 DL=  1.76e-04 (MAX-T)=   0.302 
ITERATION  42 : L=  209.4486315964 DL=  1.43e-04 (MAX-T)=   0.255 
ITERATION  43 : L=  209.4487760500 DL=  1.44e-04 (MAX-T)=   0.205 
ITERATION  44 : L=  209.4489010889 DL=  1.25e-04 (MAX-T)=   0.235 
ITERATION  45 : L=  209.4490269756 DL=  1.26e-04 (MAX-T)=   0.196 
ITERATION  46 : L=  209.4491289439 DL=  1.02e-04 (MAX-T)=   0.255 
ITERATION  47 : L=  209.4492125503 DL=  8.36e-05 (MAX-T)=   0.171 
ITERATION  48 : L=  209.4493023514 DL=  8.98e-05 (MAX-T)=   0.181 
ITERATION  49 : L=  209.4493765079 DL=  7.42e-05 (MAX-T)=   0.155 
ITERATION  50 : L=  209.4494600916 DL=  8.36e-05 (MAX-T)=   0.196 
ITERATION  51 : L=  209.4495117879 DL=  5.17e-05 (MAX-T)=   0.199 
ITERATION  52 : L=  209.4496020007 DL=  9.02e-05 (MAX-T)=   0.196 
ITERATION  53 : L=  209.4496660259 DL=  6.40e-05 (MAX-T)=   0.170 
ITERATION  54 : L=  209.4497354734 DL=  6.94e-05 (MAX-T)=   0.135 
ITERATION  55 : L=  209.4497971405 DL=  6.17e-05 (MAX-T)=   0.155 
ITERATION  56 : L=  209.4498475012 DL=  5.04e-05 (MAX-T)=   0.155 
ITERATION  57 : L=  209.4499018085 DL=  5.43e-05 (MAX-T)=   0.127 
ITERATION  58 : L=  209.4499484430 DL=  4.66e-05 (MAX-T)=   0.118 
ITERATION  59 : L=  209.4499830909 DL=  3.46e-05 (MAX-T)=   0.113 
ITERATION  60 : L=  209.4500312706 DL=  4.82e-05 (MAX-T)=   0.134 
ITERATION  61 : L=  209.4500715179 DL=  4.02e-05 (MAX-T)=   0.111 
ITERATION  62 : L=  209.4501106360 DL=  3.91e-05 (MAX-T)=   0.101 
ITERATION  63 : L=  209.4501477334 DL=  3.71e-05 (MAX-T)=   0.103 
ITERATION  64 : L=  209.4501781088 DL=  3.04e-05 (MAX-T)=   0.087 
ITERATION  65 : L=  209.4502162907 DL=  3.82e-05 (MAX-T)=   0.084 
ITERATION  66 : L=  209.4502438310 DL=  2.75e-05 (MAX-T)=   0.101 
ITERATION  67 : L=  209.4502700411 DL=  2.62e-05 (MAX-T)=   0.078 
ITERATION  68 : L=  209.4502969456 DL=  2.69e-05 (MAX-T)=   0.091 
ITERATION  69 : L=  209.4503237426 DL=  2.68e-05 (MAX-T)=   0.092 
ITERATION  70 : L=  209.4503448791 DL=  2.11e-05 (MAX-T)=   0.098 
ITERATION  71 : L=  209.4503737026 DL=  2.88e-05 (MAX-T)=   0.089 
ITERATION  72 : L=  209.4504001573 DL=  2.65e-05 (MAX-T)=   0.084 
ITERATION  73 : L=  209.4504181932 DL=  1.80e-05 (MAX-T)=   0.094 
ITERATION  74 : L=  209.4504418642 DL=  2.37e-05 (MAX-T)=   0.094 
ITERATION  75 : L=  209.4504673187 DL=  2.55e-05 (MAX-T)=   0.079 
ITERATION  76 : L=  209.4504873440 DL=  2.00e-05 (MAX-T)=   0.090 
ITERATION  77 : L=  209.4505081659 DL=  2.08e-05 (MAX-T)=   0.081 
ITERATION  78 : L=  209.4505324870 DL=  2.43e-05 (MAX-T)=   0.089 
ITERATION  79 : L=  209.4505542610 DL=  2.18e-05 (MAX-T)=   0.079 
ITERATION  80 : L=  209.4505795326 DL=  2.53e-05 (MAX-T)=   0.092 
ITERATION  81 : L=  209.4506062659 DL=  2.67e-05 (MAX-T)=   0.100 
ITERATION  82 : L=  209.4506326567 DL=  2.64e-05 (MAX-T)=   0.082 
ITERATION  83 : L=  209.4506527325 DL=  2.01e-05 (MAX-T)=   0.097 
ITERATION  84 : L=  209.4506835838 DL=  3.09e-05 (MAX-T)=   0.105 
ITERATION  85 : L=  209.4507075252 DL=  2.39e-05 (MAX-T)=   0.102 
ITERATION  86 : L=  209.4507353416 DL=  2.78e-05 (MAX-T)=   0.116 
ITERATION  87 : L=  209.4507641717 DL=  2.88e-05 (MAX-T)=   0.112 
ITERATION  88 : L=  209.4507935647 DL=  2.94e-05 (MAX-T)=   0.082 
ITERATION  89 : L=  209.4508197056 DL=  2.61e-05 (MAX-T)=   0.092 
ITERATION  90 : L=  209.4508567425 DL=  3.70e-05 (MAX-T)=   0.122 
ITERATION  91 : L=  209.4508912779 DL=  3.45e-05 (MAX-T)=   0.116 
ITERATION  92 : L=  209.4509301064 DL=  3.88e-05 (MAX-T)=   0.142 
ITERATION  93 : L=  209.4509668748 DL=  3.68e-05 (MAX-T)=   0.148 
ITERATION  94 : L=  209.4510074579 DL=  4.06e-05 (MAX-T)=   0.143 
ITERATION  95 : L=  209.4510455070 DL=  3.80e-05 (MAX-T)=   0.145 
ITERATION  96 : L=  209.4510943117 DL=  4.88e-05 (MAX-T)=   0.143 
ITERATION  97 : L=  209.4511434071 DL=  4.91e-05 (MAX-T)=   0.148 
ITERATION  98 : L=  209.4511919556 DL=  4.85e-05 (MAX-T)=   0.194 
ITERATION  99 : L=  209.4512459495 DL=  5.40e-05 (MAX-T)=   0.171 
ITERATION 100 : L=  209.4512980796 DL=  5.21e-05 (MAX-T)=   0.144 
ITERATION 101 : L=  209.4513589136 DL=  6.08e-05 (MAX-T)=   0.218 
ITERATION 102 : L=  209.4514150467 DL=  5.61e-05 (MAX-T)=   0.174 
ITERATION 103 : L=  209.4514748286 DL=  5.98e-05 (MAX-T)=   0.195 
ITERATION 104 : L=  209.4515563586 DL=  8.15e-05 (MAX-T)=   0.254 
ITERATION 105 : L=  209.4515991946 DL=  4.28e-05 (MAX-T)=   0.175 
ITERATION 106 : L=  209.4516819467 DL=  8.28e-05 (MAX-T)=   0.270 
ITERATION 107 : L=  209.4517822845 DL=  1.00e-04 (MAX-T)=   0.213 
ITERATION 108 : L=  209.4518787048 DL=  9.64e-05 (MAX-T)=   0.272 
ITERATION 109 : L=  209.4519736631 DL=  9.50e-05 (MAX-T)=   0.275 
ITERATION 110 : L=  209.4520829192 DL=  1.09e-04 (MAX-T)=   0.285 
ITERATION 111 : L=  209.4522144447 DL=  1.32e-04 (MAX-T)=   0.252 
ITERATION 112 : L=  209.4523429019 DL=  1.28e-04 (MAX-T)=   0.288 
ITERATION 113 : L=  209.4524903024 DL=  1.47e-04 (MAX-T)=   0.298 
ITERATION 114 : L=  209.4526079592 DL=  1.18e-04 (MAX-T)=   0.329 
ITERATION 115 : L=  209.4527648683 DL=  1.57e-04 (MAX-T)=   0.268 
ITERATION 116 : L=  209.4529460723 DL=  1.81e-04 (MAX-T)=   0.313 
ITERATION 117 : L=  209.4530849615 DL=  1.39e-04 (MAX-T)=   0.302 
ITERATION 118 : L=  209.4532553093 DL=  1.70e-04 (MAX-T)=   0.255 
ITERATION 119 : L=  209.4534381849 DL=  1.83e-04 (MAX-T)=   0.329 
ITERATION 120 : L=  209.4535860475 DL=  1.48e-04 (MAX-T)=   0.386 
ITERATION 121 : L=  209.4538480160 DL=  2.62e-04 (MAX-T)=   0.338 
ITERATION 122 : L=  209.4540217236 DL=  1.74e-04 (MAX-T)=   0.299 
ITERATION 123 : L=  209.4542414085 DL=  2.20e-04 (MAX-T)=   0.420 
ITERATION 124 : L=  209.4544991629 DL=  2.58e-04 (MAX-T)=   0.427 
ITERATION 125 : L=  209.4546314510 DL=  1.32e-04 (MAX-T)=   0.375 
ITERATION 126 : L=  209.4548032353 DL=  1.72e-04 (MAX-T)=   0.353 
ITERATION 127 : L=  209.4549325164 DL=  1.29e-04 (MAX-T)=   0.428 
MAXIMUM NO OF ITERATIONS EXCEEDED - LOCALIZATION NOT CONVERGED


--------------------------------------------------------------------------------
                    LOCALIZED MOLECULAR ORBITAL COMPOSITIONS
--------------------------------------------------------------------------------

The Mulliken populations for each LMO on each atom are computed
The LMO`s will be ordered according to atom index and type
  (A) Strongly localized MO`s have populations of >=0.950 on one atom
  (B) Two center bond orbitals have populations of >=0.850 on two atoms
  (C) Other MO`s are considered to be `delocalized`

FOUND  -  12 strongly local MO`s
       -   0 two center bond MO`s
       -   0 significantly delocalized MO`s

Rather strongly localized orbitals:
MO  26:   2Ar -   1.000908
MO  25:   2Ar -   1.000421
MO  24:   2Ar -   1.000597
MO  23:   2Ar -   0.999555
MO  22:   1Ar -   0.999814
MO  21:   1Ar -   1.000247
MO  20:   1Ar -   0.999813
MO  19:   1Ar -   0.999845
MO  18:   0Ar -   1.000247
MO  17:   0Ar -   1.000236
MO  16:   0Ar -   1.000187
MO  15:   0Ar -   1.000927
Localized MO's were stored in: AR3LD_3.6_3.2_4.4.proc0.loc

Localizing the core orbitals
Localization sum:   253.763920796 
------------------------------------------------------------------------------
                           ORCA ORBITAL LOCALIZATION
------------------------------------------------------------------------------

Input orbitals are from                  ... AR3LD_3.6_3.2_4.4.proc0.loc
Output orbitals are to                   ... AR3LD_3.6_3.2_4.4.proc0.loc
Max. number of iterations                ... 128
Localizations seeded randomly            ... on
Convergence tolerance                    ... 2.000e-07
Using relative localization threshhold   ... 1.000e-08
Threshold for strong local MOs           ... 9.500e-01
Threshold for bond MOs                   ... 8.500e-01
Operator                                 ... 0
Orbital range for localization           ... 0 to 14
Localization criterion                   ... FOSTER-BOYS
Doing the dipole integrals     ... o.k.
Entering Jacobi type localization:
Using Cholesky decomposition as initial guess.
Initial value of the localization sum :   253.307453
ITERATION   0 : L=  253.7625844179 DL=  4.55e-01 (MAX-T)=  45.000 
ITERATION   1 : L=  253.7639153714 DL=  1.33e-03 (MAX-T)=   6.354 
ITERATION   2 : L=  253.7639207569 DL=  5.39e-06 (MAX-T)=   0.423 
ITERATION   3 : L=  253.7639207956 DL=  3.87e-08 (MAX-T)=   0.025 
LOCALIZATION SUM CONVERGED


--------------------------------------------------------------------------------
                    LOCALIZED MOLECULAR ORBITAL COMPOSITIONS
--------------------------------------------------------------------------------

The Mulliken populations for each LMO on each atom are computed
The LMO`s will be ordered according to atom index and type
  (A) Strongly localized MO`s have populations of >=0.950 on one atom
  (B) Two center bond orbitals have populations of >=0.850 on two atoms
  (C) Other MO`s are considered to be `delocalized`

FOUND  -  15 strongly local MO`s
       -   0 two center bond MO`s
       -   0 significantly delocalized MO`s

Rather strongly localized orbitals:
MO  14:   2Ar -   1.000040
MO  13:   2Ar -   1.000025
MO  12:   2Ar -   1.000022
MO  11:   2Ar -   1.000000
MO  10:   2Ar -   1.000024
MO   9:   1Ar -   1.000012
MO   8:   1Ar -   1.000011
MO   7:   1Ar -   1.000011
MO   6:   1Ar -   1.000000
MO   5:   1Ar -   1.000006
MO   4:   0Ar -   1.000011
MO   3:   0Ar -   1.000026
MO   2:   0Ar -   1.000020
MO   1:   0Ar -   1.000000
MO   0:   0Ar -   1.000018
Localized MO's were stored in: AR3LD_3.6_3.2_4.4.proc0.loc

Warning: reference  - re-canonicalizations have been set to INT 1 VIRT 1
Warning: internal orbitals are localized - no re-canonicalization of internal orbitals
Warning: UsePNO is turned on - no re-canonicalization of internal and virtual orbitals
Fock densities were made 
Making Fock matrix and reference energy:

--------------------------
CLOSED-SHELL FOCK OPERATOR
--------------------------

Time needed for Fock operator              ...            1.813 sec
Reference energy                           ...  -1580.399192079

--------------
DLPNO SETTINGS (2015 fully linear scaling implementation)
--------------

TCutMKN:           1.000e-03
TCutPAO:           1.000e-03
TCutPNO:           3.330e-07
TCutPNOSingles:    9.990e-09
TCutEN:            9.700e-01
TCutPAOExt:        1.000e-01
TCutPairs:         1.000e-05
TCutPre:           1.000e-07
TCutOSV:           1.000e-06
TCutDOij:          1.000e-05
TCutDO:            1.000e-02
TCutC:             1.000e-04
TCutCPAO:          1.000e-03
TCutCMO:           1.000e-03
TScaleDOMP2PreScr: 2.000e+00
TScaleMKNMP2PreScr:1.000e+01
TScalePNOMP2PreScr:1.000e+00
PAO overlap thresh 1.000e-08
Using PNOs for Singles Fock computation
Use new domains
Use fully linear algorithm

--------------------------
Mulliken population of the LMOs            ... ok
Performing proximity check                 ... No problems found
Calculating differential overlap integrals ... ok

------------------------
PRESCREENING OF HF PAIRS
------------------------

   .... Finished loop over pairs

                  ============================================
                    30 of   78 PAIRS WERE SKIPPED as HF PAIRS
                  ============================================

Total time spent in skipping HF pairs                 ...     0.000 sec
--------------------------
ELECTRON PAIR PRESCREENING
--------------------------

Dipole-based pair screening          .... used

   TCutDOij = 1.000000e-05
   TCutPre  = 1.000000e-07
   .... Finished loop over pairs
Total time spent in the prescreening                  ...     0.000 sec
sum of pair energies estimated for screened out pairs ...       0.000000000000 Eh
Thresholds for map construction and integral transformation for crude MP2:
   TCutMKN                    ...     1.0e-02
   TCutDO                     ...     2.0e-02
   TCutPairs                  ...     1.0e-05
   TCutPNO_CrudeMP2           ...     3.3e-07
   TCutPNOSingles_CrudeMP2    ...     1.0e-08
--------------------------------
LOCAL RI TRANSFORMATION (IAVPAO)
--------------------------------

Orbital window:      15 to 26
Number of PAOs:      81
Basis functions:     81 (33 shells)
Aux. functions:     276 (84 shells)
Use SHARK:           on
Have SHARK:         yes

Processing maps (0.0 sec)
Average map sizes:
   Aux shells -> MOs              12.0
   Aux shells -> PAOs             81.0
   MOs        -> AO shells        33.0
   PAOs       -> AO shells        33.0

Calculating integrals (0.2 sec, 2.050 MB)
Sorting integrals (0.0 sec, 2.047 MB)
Total time for the integral transformation: 0.2 sec
--------------------------------
INITIAL GUESS AND PNO GENERATION
--------------------------------

Populations of internal orbitals onto Fragments:
  15:      1.001    0.000    0.001  assigned to fragment   1
  16:      1.000    0.000    0.000  assigned to fragment   1
  17:      1.000    0.000    0.000  assigned to fragment   1
  18:      1.000    0.000    0.000  assigned to fragment   1
  19:      0.000    1.000    0.000  assigned to fragment   2
  20:      0.000    1.000    0.000  assigned to fragment   2
  21:      0.000    1.000    0.000  assigned to fragment   2
  22:      0.000    1.000    0.000  assigned to fragment   2
  23:      0.000    0.000    1.000  assigned to fragment   3
  24:      0.000    0.000    1.001  assigned to fragment   3
  25:      0.001    0.000    1.000  assigned to fragment   3
  26:      0.001    0.000    1.001  assigned to fragment   3

Summary assignment:
   4 orbitals assigned to fragment   1
   4 orbitals assigned to fragment   2
   4 orbitals assigned to fragment   3

PNO truncation parameters                   .... 
    PAOOverlapThresh   =        1.000e-08

Pair selection                          .... 
  modified with fragment specific keywords
  Pairs will be selected according to these
  intra(inter)fragment cutoffs
  1 <-> 1
    Intrafragment pairs 1 <-> 1 neglected for CCSD
  1 <-> 2
    TCutPairs          =        1.000e-05
    TCutPNO            =        3.330e-07
    TCutMKN            =        1.000e-02
    TCutDO             =        2.000e-02
    TCutPNOSingles     =        9.990e-09
    TCutMP2Pairs       =        1.000e-06
  1 <-> 3
    TCutPairs          =        1.000e-05
    TCutPNO            =        3.330e-07
    TCutMKN            =        1.000e-02
    TCutDO             =        2.000e-02
    TCutPNOSingles     =        9.990e-09
    TCutMP2Pairs       =        1.000e-06
  2 <-> 2
    Intrafragment pairs 2 <-> 2 neglected for CCSD
  2 <-> 3
    TCutPairs          =        1.000e-05
    TCutPNO            =        3.330e-07
    TCutMKN            =        1.000e-02
    TCutDO             =        2.000e-02
    TCutPNOSingles     =        9.990e-09
    TCutMP2Pairs       =        1.000e-06
  3 <-> 3
    Intrafragment pairs 3 <-> 3 neglected for CCSD

Type of local MP2 treatment                 .... semi-local MP2
Strategy for PNO selection                  .... occupation number selection
Pair density normalization                  .... MP2 norm
Spin component scaling                      .... not used

   .... Finished loop over pairs
Making pair pair interaction lists          ... done

                       ===========================
                         45 OF   60 PAIRS ARE KEPT CCSD PAIRS
                          3 OF   60 PAIRS ARE KEPT MP2 PAIRS
                         12 OF   60 PAIRS ARE SKIPPED
                       ===========================

Total time spent in the initial guess                 ...     0.316 sec
SL-MP2 correlation energy (all non-screened pairs)    ...      -0.002679905439 Eh

Initial PNO correlation energy                        ...      -0.002583614570 Eh
sum of pair energies prescreened and skipped MP2 pairs...       0.000000000000 Eh
sum of pair energies of crude MP2 skipped pairs only  ...       0.000000000000 Eh
sum of MP2 pair energies for pairs that were not kept ...      -0.000025376800 Eh
sum of PNO error estimates for the kept pairs         ...      -0.000070914068 Eh
                                                          --------------------
sum of all corrections                                         -0.000096290869
Initial total correlation energy                               -0.002679905439
Thresholds for map construction and integral transformation for fine MP2 and CCSD(T) calculation:
   TCutMKN   ...     1.0e-03
   TCutDO    ...     1.0e-02
   TCutPairs ...     1.0e-05
   TCutCMO   ...     1.0e-03
   TCutCPAO  ...     1.0e-03

--------------------------------
LOCAL RI TRANSFORMATION (IAVPAO)
--------------------------------

Orbital window:      15 to 26
Number of PAOs:      81
Basis functions:     81 (33 shells)
Aux. functions:     276 (84 shells)
Use SHARK:           on
Have SHARK:         yes

Processing maps (0.0 sec)
Average map sizes:
   Aux shells -> MOs              12.0
   Aux shells -> PAOs             81.0
   MOs        -> AO shells        33.0
   PAOs       -> AO shells        33.0

Calculating integrals (0.2 sec, 2.050 MB)
Sorting integrals (0.0 sec, 2.047 MB)
Total time for the integral transformation: 0.2 sec
--------------------------------
INITIAL GUESS AND PNO GENERATION
--------------------------------

Populations of internal orbitals onto Fragments:
  15:      1.001    0.000    0.001  assigned to fragment   1
  16:      1.000    0.000    0.000  assigned to fragment   1
  17:      1.000    0.000    0.000  assigned to fragment   1
  18:      1.000    0.000    0.000  assigned to fragment   1
  19:      0.000    1.000    0.000  assigned to fragment   2
  20:      0.000    1.000    0.000  assigned to fragment   2
  21:      0.000    1.000    0.000  assigned to fragment   2
  22:      0.000    1.000    0.000  assigned to fragment   2
  23:      0.000    0.000    1.000  assigned to fragment   3
  24:      0.000    0.000    1.001  assigned to fragment   3
  25:      0.001    0.000    1.000  assigned to fragment   3
  26:      0.001    0.000    1.001  assigned to fragment   3

Summary assignment:
   4 orbitals assigned to fragment   1
   4 orbitals assigned to fragment   2
   4 orbitals assigned to fragment   3

PNO truncation parameters                   .... 
    PAOOverlapThresh   =        1.000e-08

Pair selection                          .... 
  modified with fragment specific keywords
  Pairs will be selected according to these
  intra(inter)fragment cutoffs
  1 <-> 1
    Intrafragment pairs 1 <-> 1 neglected for CCSD
  1 <-> 2
    TCutPairs          =        1.000e-05
    TCutPNO            =        3.330e-07
    TCutMKN            =        1.000e-03
    TCutDO             =        1.000e-02
    TCutPNOSingles     =        9.990e-09
    TCutMP2Pairs       =        1.000e-06
  1 <-> 3
    TCutPairs          =        1.000e-05
    TCutPNO            =        3.330e-07
    TCutMKN            =        1.000e-03
    TCutDO             =        1.000e-02
    TCutPNOSingles     =        9.990e-09
    TCutMP2Pairs       =        1.000e-06
  2 <-> 2
    Intrafragment pairs 2 <-> 2 neglected for CCSD
  2 <-> 3
    TCutPairs          =        1.000e-05
    TCutPNO            =        3.330e-07
    TCutMKN            =        1.000e-03
    TCutDO             =        1.000e-02
    TCutPNOSingles     =        9.990e-09
    TCutMP2Pairs       =        1.000e-06
  3 <-> 3
    Intrafragment pairs 3 <-> 3 neglected for CCSD

Type of local MP2 treatment                 .... semi-local MP2
Strategy for PNO selection                  .... occupation number selection
Pair density normalization                  .... MP2 norm
Spin component scaling                      .... not used

   .... Finished loop over pairs

 PNO Occupation Number Statistics: 
  | Av. % of trace(Dij) retained        ...  98.433190028326
  | sigma^2 in % of trace(Dij) retained ...   1.37e+00
  | Av. % of trace(Di) retained         ...  99.999915436648
  | sigma^2 in % of trace(Di) retained  ...   3.68e-09
 Distributions of % trace(Dij) recovered:
  |   [90.0, 99.0) ...    33 ( 73.3 % of all pairs)
  |   [99.0, 99.9) ...    12 ( 26.7 % of all pairs)
 Distributions of % trace(Di) recovered :
  |       >= 99.9  ...    12 (100.0 % of all I-pairs )

Making pair pair interaction lists          ... done

                       ===========================
                         45 OF   60 PAIRS ARE KEPT
                       ===========================

Total time spent in the initial guess                 ...     0.352 sec
SL-MP2 correlation energy (all non-screened pairs)    ...      -0.002679906829 Eh

Initial PNO correlation energy                        ...      -0.002583615836 Eh
sum of pair energies estimated for screened out pairs ...       0.000000000000 Eh
sum of MP2 pair energies for pairs that were not kept ...      -0.000025376800 Eh
sum of PNO error estimates for the kept pairs         ...      -0.000070914193 Eh
                                                          --------------------
sum of all corrections                                         -0.000096290993
Initial total correlation energy                               -0.002679906829
Thresholds for map construction and integral transformation for fine MP2 and CCSD(T) calculation:
   TCutMKN   ...     1.0e-03
   TCutDO    ...     1.0e-02
   TCutPairs ...     1.0e-05
   TCutCMO   ...     1.0e-03
   TCutCPAO  ...     1.0e-03

Time for aux screen maps:            0.000
Time for maps after fine MP2:            0.002
-----------------------------
LOCAL RI TRANSFORMATION (IJV)
-----------------------------

Orbital window:      15 to 26
Basis functions:     81 (33 shells)
Aux. functions:     276 (84 shells)
Use SHARK:           on

Processing maps (0.0 sec)
Average map sizes:
   Aux shells -> MOs(i)           12.0
   Aux shells -> MOs(j)           12.0
   MOs        -> AO shells        33.0

Calculating integrals NOTE: Switching SHARK to General Contraction for MDCI
      If that is not desired please turn off the PGCFlag in the input (%shark PGCFlag 0 end)
(1.7 sec, 0.306 MB)
Sorting integrals (0.0 sec, 0.303 MB)
Total time for the integral transformation: 1.7 sec
--------------------------------
LOCAL RI TRANSFORMATION (VABPAO)
--------------------------------

Number of PAOs:      81
Basis functions:     81 (33 shells)
Aux. functions:     276 (84 shells)
Use SHARK:           on

Processing maps (0.0 sec)
Average map sizes:
   Aux shells -> PAOs             81.0
   PAOs       -> AO shells        33.0

Calculating integrals NOTE: Switching SHARK to General Contraction for MDCI
      If that is not desired please turn off the PGCFlag in the input (%shark PGCFlag 0 end)
(1.9 sec, 13.819 MB)
Finished


-------------------------------------
Pair Pair Term precalculation with     
RI-(ij|mn) and (im|jn) transformation  
ON THE FLY                             
-------------------------------------

   IBatch   1 (of   1)              ... done (    1.292 sec)
Total EXT                           ...           1.292 sec

IAVPA Available = YES
VABPAO Available= YES
IJV Available   = YES
IJK Available   = NO
PNO3i Available = YES
PNO3j Available = YES
PNO4 Available  = YES
---------------------
RI-PNO TRANSFORMATION
---------------------

Total Number of PNOs                   ...   320
Average number of PNOs per pair        ...     7
Maximal number of PNOs per pair        ...    11
   #pairs with  1 -  5 PNOs   :    1
   #pairs with  6 - 10 PNOs   :   43
   #pairs with 11 - 15 PNOs   :    1
   #pairs with 16 - 20 PNOs   :    0
   #pairs with 21 - 25 PNOs   :    0
   #pairs with 26 - 30 PNOs   :    0
   #pairs with 31 - 35 PNOs   :    0
   #pairs with 36 - 40 PNOs   :    0
   #pairs with 41 - 45 PNOs   :    0
   #pairs with 46 - 50 PNOs   :    0

Generation of (ij|ab)[P] integrals            ... on
Generation of (ia|bc)[P],(ja|bc)[P] integrals ... on
Storage of 3 and 4 external integrals         ... on
Generation of ALL (ka|bc)[P] integrals        ... on
Keep RI integrals in memory                   ... off

Ibatch:  1 (of  1)
Starting 2-4 index PNO integral generation ... done

Timings:
Total PNO integral transformation time     ...          0.783 sec
Size of the 3-external file                ...         0 MB
Size of the 4-external file                ...         0 MB
Size of the IKJL file                      ...         0 MB
Size of the all 3-external file            ...         0 MB
Size of the 1-external file                ...         0 MB

Making pair/pair overlap matrices          ... done (    0.098 sec)
Size of the pair overlap file              ... 1 MB
Redoing the guess amplitudes               ... done (    0.000 sec)

-------------------------
FINAL STARTUP INFORMATION
-------------------------

E(0)                                       ...  -1580.399192079
E(SL-MP2)                                  ...     -0.002679907
E(SL-MP2) including corrections            ...     -0.002679907
Initial E(tot)                             ...  -1580.401871985
<T|T>                                      ...      0.000979571
Number of pairs included                   ... 45
Total number of pairs                      ... 78

------------------------------------------------
                  RHF COUPLED CLUSTER ITERATIONS
------------------------------------------------

Number of PNO amplitudes to be optimized   ...         2358
Number of non-PNO amplitudes               ...       131220
Untruncated number of regular amplitudes   ...       227448

Iter       E(tot)           E(Corr)          Delta-E          Residual     Time
  0  -1580.401871652     -0.002583282      0.000096625      0.000622120    0.12
                           *** Turning on DIIS ***
  1  -1580.401756680     -0.002468310      0.000114972      0.000127550    0.13
  2  -1580.401768637     -0.002480267     -0.000011957      0.000045177    0.17
  3  -1580.401769379     -0.002481009     -0.000000742      0.000010875    0.24
  4  -1580.401769637     -0.002481267     -0.000000258      0.000001457    0.21
  5  -1580.401769671     -0.002481301     -0.000000034      0.000000399    0.11
               --- The Coupled-Cluster iterations have converged ---

----------------------
COUPLED CLUSTER ENERGY
----------------------

E(0)                                       ...  -1580.399192079
E(CORR)(strong-pairs)                      ...     -0.002481301
E(CORR)(weak-pairs)                        ...     -0.000096291
E(CORR)(corrected)                         ...     -0.002577592
E(TOT)                                     ...  -1580.401769671
Singles Norm <S|S>**1/2                    ...      0.001545612  
T1 diagnostic                              ...      0.000315497  

------------------
LARGEST AMPLITUDES
------------------
  26-> 27  15-> 27       0.001622
  25-> 27  15-> 27       0.001545
  26-> 27  21-> 27       0.001502
  24-> 28  16-> 28       0.001385
  26-> 28  17-> 28       0.001361
  24-> 27  15-> 27       0.001290
  26-> 28  17-> 32       0.001287
  24-> 27  21-> 27       0.001221
  24-> 28  16-> 32       0.001184
  25-> 30  15-> 27       0.001167
  26-> 27  19-> 27       0.001165
  25-> 27  15-> 30       0.001152
  26-> 27  17-> 27       0.001129
  25-> 27  18-> 27       0.001117
  24-> 32  16-> 28       0.001115
  23-> 32  15-> 28       0.001077


 ===========================================================
         LOCAL ENERGY DECOMPOSITION FOR DLPNO-CC METHODS
 ===========================================================

Maximum Iterations for the Localization .. 600
Tolerance for the Localization          ..  1.00e-06
Number of fragments = 3
Fragment  1:  0
Fragment  2:  1
Fragment  3:  2

Populations of internal orbitals onto Fragments:
   0:      1.000    0.000    0.000  assigned to fragment   1
   1:      1.000    0.000    0.000  assigned to fragment   1
   2:      1.000    0.000    0.000  assigned to fragment   1
   3:      1.000    0.000    0.000  assigned to fragment   1
   4:      1.000    0.000    0.000  assigned to fragment   1
   5:      0.000    1.000    0.000  assigned to fragment   2
   6:      0.000    1.000    0.000  assigned to fragment   2
   7:      0.000    1.000    0.000  assigned to fragment   2
   8:      0.000    1.000    0.000  assigned to fragment   2
   9:      0.000    1.000    0.000  assigned to fragment   2
  10:      0.000    0.000    1.000  assigned to fragment   3
  11:      0.000    0.000    1.000  assigned to fragment   3
  12:      0.000    0.000    1.000  assigned to fragment   3
  13:      0.000    0.000    1.000  assigned to fragment   3
  14:      0.000    0.000    1.000  assigned to fragment   3
  15:      1.001    0.000    0.001  assigned to fragment   1
  16:      1.000    0.000    0.000  assigned to fragment   1
  17:      1.000    0.000    0.000  assigned to fragment   1
  18:      1.000    0.000    0.000  assigned to fragment   1
  19:      0.000    1.000    0.000  assigned to fragment   2
  20:      0.000    1.000    0.000  assigned to fragment   2
  21:      0.000    1.000    0.000  assigned to fragment   2
  22:      0.000    1.000    0.000  assigned to fragment   2
  23:      0.000    0.000    1.000  assigned to fragment   3
  24:      0.000    0.000    1.001  assigned to fragment   3
  25:      0.001    0.000    1.000  assigned to fragment   3
  26:      0.001    0.000    1.001  assigned to fragment   3

Summary assignment:
   9 orbitals assigned to fragment   1
   9 orbitals assigned to fragment   2
   9 orbitals assigned to fragment   3


--------------------------------
CORRELATION ENERGY DECOMPOSITION
--------------------------------


--------------------------------------------------
INTER- vs INTRA-FRAGMENT CORRELATION ENERGIES (Eh)
--------------------------------------------------

                                   Fragment   1            Fragment   2            Fragment   3            
                         ----------------------  ----------------------  ----------------------  
Intra strong pairs               0.000000000000         0.000000000000         0.000000000000  sum=        0.000000000000
Intra weak pairs                 0.000000000000         0.000000000000         0.000000000000  sum=        0.000000000000
Singles contribution             0.000000000013         0.000000000019        -0.000000000048  sum=       -0.000000000016
                         ----------------------  ----------------------  ----------------------  
                                 0.000000000013         0.000000000019        -0.000000000048  sum=       -0.000000000016


Interaction correlation for Fragments   2 and   1:
--------------------------------------------------
Inter strong pairs               -0.000183808349 (   -0.115 kcal/mol)
Inter weak pairs                 -0.000028191941 (   -0.018 kcal/mol)
                          ----------------------
Total interaction                -0.000212000290 (   -0.133 kcal/mol)

Interaction correlation for Fragments   3 and   1:
--------------------------------------------------
Inter strong pairs               -0.001535600376 (   -0.964 kcal/mol)
Inter weak pairs                 -0.000044653936 (   -0.028 kcal/mol)
                          ----------------------
Total interaction                -0.001580254312 (   -0.992 kcal/mol)
Interaction correlation for Fragments   3 and   2:
--------------------------------------------------
Inter strong pairs               -0.000761892533 (   -0.478 kcal/mol)
Inter weak pairs                 -0.000023445117 (   -0.015 kcal/mol)
                          ----------------------
Total interaction                -0.000785337650 (   -0.493 kcal/mol)



Sum of INTRA-fragment correlation energies  =        -0.000000000016
Sum of INTER-fragment correlation energies  =        -0.002577592252
                                              ---------------------
Total correlation energy                    =        -0.002577592267

---------------------------------------------
DECOMPOSITION OF CCSD STRONG PAIRS INTO      
    DOUBLE EXCITATION TYPES (Eh)             
---------------------------------------------

Foster-Boys localization is used for localizing PNOs

Intra fragment contributions: 
INTRA Fragment 1                        0.000000000 
INTRA Fragment 2                        0.000000000 
INTRA Fragment 3                        0.000000000 

Charge transfer contributions: 
Charge Transfer 1 to 2                 -0.000000293 
Charge Transfer 1 to 3                 -0.000080139 
Charge Transfer 2 to 1                 -0.000000304 
Charge Transfer 2 to 3                 -0.000019578 
Charge Transfer 3 to 1                 -0.000096361 
Charge Transfer 3 to 2                 -0.000025100 

Dispersion contributions: 
Dispersion  2,1                        -0.000183212 
Dispersion  3,1                        -0.001359101 
Dispersion  3,2                        -0.000717214 

Singles contributions:                   
Singles energy                         -0.000000000 
 
Delocalized contributions: 
Delocalized correlation                 0.000000000 

#Time for LED analysis ..       0.0 (sec)



--------------------------------------------------------------------------------
                                    TIMINGS
--------------------------------------------------------------------------------


Total execution time                   ...       11.315 sec

Localization of occupied MO's          ...        0.219 sec (  1.9%)
Fock Matrix Formation                  ...        1.813 sec ( 16.0%)
Global overlap, Fock, MKN matrices     ...        0.328 sec (  2.9%)
Differential overlap integrals         ...        0.518 sec (  4.6%)
Organizing maps                        ...        0.005 sec (  0.0%)
RI 3-index integral generations        ...        4.001 sec ( 35.4%)
RI-PNO integral transformation         ...        2.181 sec ( 19.3%)
Initial Guess                          ...        0.683 sec (  6.0%)
DIIS Solver                            ...        0.015 sec (  0.1%)
State Vector Update                    ...        0.000 sec (  0.0%)
Sigma-vector construction              ...        0.961 sec (  8.5%)
  <D|H|D>(0-ext)                       ...        0.134 sec ( 13.9% of sigma)
  <D|H|D>(2-ext Fock)                  ...        0.002 sec (  0.3% of sigma)
  <D|H|D>(2-ext)                       ...        0.199 sec ( 20.7% of sigma)
  <D|H|D>(4-ext)                       ...        0.010 sec (  1.0% of sigma)
  <D|H|D>(4-ext-corr)                  ...        0.030 sec (  3.1% of sigma)
  CCSD doubles correction              ...        0.025 sec (  2.6% of sigma)
  <S|H|S>                              ...        0.058 sec (  6.1% of sigma)
  <S|H|D>(1-ext)                       ...        0.049 sec (  5.1% of sigma)
  <D|H|S>(1-ext)                       ...        0.002 sec (  0.2% of sigma)
  <S|H|D>(3-ext)                       ...        0.008 sec (  0.8% of sigma)
  Fock-dressing                        ...        0.270 sec ( 28.1% of sigma)
  Singles amplitudes                   ...        0.012 sec (  1.2% of sigma)
  (ik|jl)-dressing                     ...        0.071 sec (  7.4% of sigma)
  (ij|ab),(ia|jb)-dressing             ...        0.076 sec (  7.9% of sigma)
Local Energy Decomposition             ...        0.033 sec (  0.3% of ALL)


Maximum memory used throughout the entire MDCI-calculation: 67.0 MB
----------------------------   ----------------
Inter-fragment dispersion       -0.002355818
----------------------------   ----------------


-------------------------   --------------------
FINAL SINGLE POINT ENERGY     -1580.401547896622 
-------------------------   --------------------


------------------------------------------------------------------------------
                              ORCA PROPERTY CALCULATIONS
------------------------------------------------------------------------------

GBWName                                 ... AR3LD_3.6_3.2_4.4.gbw
Number of atoms                         ...      3
Number of basis functions               ...    150
Max core memory                         ...   1024 MB

Electric properties:
Dipole moment                           ... YES
Quadrupole moment                       ...  NO
Static polarizability (Dipole/Dipole)   ...  NO
Static polarizability (Dipole/Quad.)    ...  NO
Static polarizability (Quad./Quad.)     ...  NO
Static polarizability (Velocity)        ...  NO

Atomic electric properties:
Dipole moment                           ...  NO
Quadrupole moment                       ...  NO
Static polarizability                   ...  NO

Choice of electric origin               ... Center of mass
Position of electric origin             ...     3.962698     1.626148     0.000000

General magnetic properties:
Magnetizability                         ...  NO

EPR properties:
g-Tensor (aka g-matrix)                 ...  NO
Zero-Field splitting spin-orbit         ...  NO
Zero-field splitting spin-spin          ...  NO
Hyperfine couplings                     ...  NO (   0 nuclei)
Quadrupole couplings                    ...  NO (   0 nuclei)
Contact density                         ...  NO (   0 nuclei)

NMR properties:
Chemical shifts                         ...  NO (   0 nuclei)
Spin-rotation constants                 ...  NO (   0 nuclei)
Spin-spin couplings                     ...  NO (   0 nuclei,    0 pairs)

Choice of magnetic origin               ... GIAO
Position of magnetic origin             ...     0.000000     0.000000     0.000000

Properties with geometric perturbations:
SCF Hessian                             ...  NO
IR spectrum                             ...  NO
VCD spectrum                            ...  NO
X-ray spectroscopy properties:
SCF XES/XAS/RIXS spectra                ...  NO


-------------
DIPOLE MOMENT
-------------

Method             : SCF
Type of density    : Electron Density
Multiplicity       :   1
Irrep              :   0
Energy             : -1580.3991920786129413 Eh
Relativity type    : 
Basis              : AO
                                X                 Y                 Z
Electronic contribution:      0.000503648       0.000442248      -0.000000000
Nuclear contribution   :      0.000000000      -0.000000000       0.000000000
                        -----------------------------------------
Total Dipole Moment    :      0.000503648       0.000442248      -0.000000000
                        -----------------------------------------
Magnitude (a.u.)       :      0.000670257
Magnitude (Debye)      :      0.001703658



--------------------
Rotational spectrum 
--------------------
 
Rotational constants in cm-1:             0.096123             0.043075             0.029746 
Rotational constants in MHz :          2881.684656          1291.366228           891.748111 

Dipole components along the rotational axes: 
x,y,z [a.u.] :    -0.000457     0.000490    -0.000000 
x,y,z [Debye]:    -0.001163     0.001245    -0.000000 

 

Dipole moment calculation done in   0.0 sec 

Maximum memory used throughout the entire PROP-calculation: 6.8 MB

--------------------------------
SUGGESTED CITATIONS FOR THIS RUN
--------------------------------

Below you find a list of papers that are relevant to this ORCA run
We neither can nor want to force you to cite these papers, but we appreciate if you do
You receive ORCA, which is the product of decades of hard work by many enthusiastic individuals, for free
The only thing we kindly ask in return is that you cite our papers,
We deeply appreciate it, if you show your appreciation for ORCA by not just citing the generic ORCA reference.

Please note that relegating all ORCA citations to the supporting information does *not* help us.
SI sections are not indexed - citations you put there will not count into any citation statistics
But we need these citations in order to attract the funding resources that allow us to do what we are doing

Therefore, if you are a happy ORCA user, please consider citing a few of the papers listed below in the main body of your paper

In addition to the list printed below, the program has created the file AR3LD_3.6_3.2_4.4.bibtex that contains the list in bibtex format
You can import this file easily into all common literature databanks and citation aid programs


List of essential papers. We consider these as the minimum necessary citations

  1. Neese,F.
     Software update: the ORCA program system, version 5.0
     WIRES Comput. Molec. Sci., 2022 12(1)e1606
     doi.org/10.1002/wcms.1606

List of papers to cite with high priority. The work reported in these papers was absolutely
necessary for this run to complete.
Our perspective: the developers of density functionals and basis sets usually get cited in chemistry papers
Good! But without the algorithms to do something with them, the functionals or basis sets would not do anything.
Hence, in our opinion, the algorithm design and method developments papers are equally worthy of getting cited

  1. Neese,F.; Hansen,A.; Liakos,D.G.
     Efficient and accurate approximations to the local coupled cluster singles doubles method using a truncated pair natural orbital basis
     J. Chem. Phys., 2009 131 064103
     doi.org/10.1063/1.3173827
  2. Neese,F.; Wennmohs,F.; Hansen,A.
     Efficient and accurate local approximations to coupled-electron pair approaches: An attempt to revive the pair natural orbital method
     J. Chem. Phys., 2009 130 114108
     doi.org/10.1063/1.3086717
  3. Riplinger,C.; Neese,F.
     An efficient and near linear scaling pair natural orbital based local coupled cluster method
     J. Chem. Phys., 2013 138(3)Art. No. 034106
     doi.org/10.1063/1.4773581
  4. Datta,D.; Kossmann,S.; Neese,F.
     Analytic energy derivatives for the calculation of the first-order molecular properties using the domain-based local pair-natural orbital coupled-cluster theory
     J. Chem. Phys., 2016 145 
     doi.org/10.1063/1.4962369
  5. Riplinger,C.; Pinski,P.; Becker,U.; Valeev,E.F.; Neese,F.
     Sparse maps-A systematic infrastructure for reduced-scaling electronic structure methods. II. Linear scaling domain based pair natural orbital coupled cluster theory
     J. Chem. Phys., 2016 144 
     doi.org/10.1063/1.4939030
  6. Schneider,W.B.; Bistoni,G.; Sparta,M.; Saitow,M.; Riplinger,C.; Auer,A.A.; Neese,F.
     Decomposition of Intermolecular Interaction Energies within the Local Pair Natural Orbital Coupled Cluster Framework
     J. Theo. Comp. Chem., 2016 12 4778-4792
     doi.org/10.1021/acs.jctc.6b00523
  7. Bistoni,G.; Riplinger,C.; Minenkov,Y.; Cavallo,L.; Auer,A.A.; Neese,F.
     Treating Subvalence Correlation Effects in Domain Based Pair Natural Orbital Coupled Cluster Calculations: An Out-of-the-Box Approach
     J. Theo. Comp. Chem., 2017 13 3220-3227
     doi.org/10.1021/acs.jctc.7b00352
  8. Altun,A.; Neese,F.; Bistoni,G.
     HFLD: A Nonempirical London Dispersion-Corrected Hartree-Fock Method for the Quantification and Analysis of Noncovalent Interaction Energies of Large Molecular Systems
     J. Chem. Theory Comput., 2019 15 5894-5907
     doi.org/10.1021/acs.jctc.9b00425
  9. Neese,F.
     The SHARK Integral Generation and Digestion System
     J. Comp. Chem., 2022  1-16
     doi.org/10.1002/jcc.26942
 10. Altun,A.; Neese,F.; Bistoni,G.
     Open-Shell Variant of the London Dispersion-Corrected Hartree–Fock Method (HFLD) for the Quantification and Analysis of Noncovalent Interaction Energies
     J. Chem. Theory Comput., 2022 XX XXXX-XXXX
     doi.org/10.1021/acs.jctc.1c01295

List of suggested additional citations. These are papers that are important in the 'surrounding' of 
of this run, or papers that preceded the highly important papers. If you like your results we are grateful for a citation.

  1. Neese,F.
     The ORCA program system
     WIRES Comput. Molec. Sci., 2012 2(1)73-78
     doi.org/10.1002/wcms.81
  2. Neese,F.
     Software update: the ORCA program system, version 4.0
     WIRES Comput. Molec. Sci., 2018 8(1)1-6
     doi.org/10.1002/wcms.1327
  3. Neese,F.; Wennmohs,F.; Becker,U.; Riplinger,C.
     The ORCA quantum chemistry program package
     J. Chem. Phys., 2020 152 Art. No. L224108
     doi.org/10.1063/5.0004608
  4. Bistoni,G.
     Finding chemical concepts in the Hilbert space: Coupled cluster analyses of noncovalent interactions
     WIRES Comput. Molec. Sci., 2020 10(3)e1442
     doi.org/10.1002/wcms.1442

List of optional additional citations

  1. Neese,F.
     Approximate second-order SCF convergence for spin unrestricted wavefunctions
     Chem. Phys. Lett., 2000 325(1-3)93-98
     doi.org/10.1016/s0009-2614(00)00662-x

Timings for individual modules:

Sum of individual times          ...       27.121 sec (=   0.452 min)
Startup calculation              ...        3.400 sec (=   0.057 min)  12.5 %
SCF iterations                   ...       12.064 sec (=   0.201 min)  44.5 %
Property integrals               ...        0.133 sec (=   0.002 min)   0.5 %
Property calculations            ...        0.158 sec (=   0.003 min)   0.6 %
MDCI module                      ...       11.366 sec (=   0.189 min)  41.9 %
                             ****ORCA TERMINATED NORMALLY****
TOTAL RUN TIME: 0 days 0 hours 0 minutes 27 seconds 247 msec
