
                                 *****************
                                 * O   R   C   A *
                                 *****************

                                            #,                                       
                                            ###                                      
                                            ####                                     
                                            #####                                    
                                            ######                                   
                                           ########,                                 
                                     ,,################,,,,,                         
                               ,,#################################,,                 
                          ,,##########################################,,             
                       ,#########################################, ''#####,          
                    ,#############################################,,   '####,        
                  ,##################################################,,,,####,       
                ,###########''''           ''''###############################       
              ,#####''   ,,,,##########,,,,          '''####'''          '####       
            ,##' ,,,,###########################,,,                        '##       
           ' ,,###''''                  '''############,,,                           
         ,,##''                                '''############,,,,        ,,,,,,###''
      ,#''                                            '''#######################'''  
     '                                                          ''''####''''         
             ,#######,   #######,   ,#######,      ##                                
            ,#'     '#,  ##    ##  ,#'     '#,    #''#        ,####,   ,####,        
            ##       ##  ##   ,#'  ##            #'  '#       #'       #'  '#        
            ##       ##  #######   ##           ,######,      #####,   #    #        
            '#,     ,#'  ##    ##  '#,     ,#' ,#      #,     #,   #   #,  ,#        
             '#######'   ##     ##  '#######'  #'      '#     '####' # '####'        



                #########################################################
                #                        -***-                          #
                #          Department of theory and spectroscopy        #
                #                                                       #
                #                      Frank Neese                      #
                #                                                       #
                #     Directorship, Architecture, Infrastructure        #
                #                    SHARK, DRIVERS                     #
                #        Core code/Algorithms in most modules           #
                #                                                       #
                #        Max Planck Institute fuer Kohlenforschung      #
                #                Kaiser Wilhelm Platz 1                 #
                #                 D-45470 Muelheim/Ruhr                 #
                #                      Germany                          #
                #                                                       #
                #                  All rights reserved                  #
                #                        -***-                          #
                #########################################################


                         Program Version 6.0.0  -   RELEASE  -


 With contributions from (in alphabetic order):
   Daniel Aravena         : Magnetic Suceptibility
   Michael Atanasov       : Ab Initio Ligand Field Theory (pilot matlab implementation)
   Alexander A. Auer      : GIAO ZORA, VPT2 properties, NMR spectrum
   Ute Becker             : All parallelization in ORCA, NUMFREQ, NUMCALC
   Giovanni Bistoni       : ED, misc. LED, open-shell LED, HFLD
   Martin Brehm           : Molecular dynamics
   Dmytro Bykov           : pre 5.0 version of the SCF Hessian
   Marcos Casanova-Páez   : Triplet and SCS-CIS(D). UHF-(DLPNO)-IP/EA/STEOM-CCSD. UHF-CVS-IP/STEOM-CCSD
   Vijay G. Chilkuri      : MRCI spin determinant printing, contributions to CSF-ICE
   Pauline Colinet        : FMM embedding
   Dipayan Datta          : RHF DLPNO-CCSD density
   Achintya Kumar Dutta   : EOM-CC, STEOM-CC
   Nicolas Foglia         : Exact transition moments, OPA infrastructure, MCD improvements
   Dmitry Ganyushin       : Spin-Orbit,Spin-Spin,Magnetic field MRCI
   Miquel Garcia          : C-PCM and meta-GGA Hessian, CCSD/C-PCM, Gaussian charge scheme
   Tiago L. C. Gouveia    : GS-ROHF, GS-ROCIS
   Yang Guo               : DLPNO-NEVPT2, F12-NEVPT2, CIM, IAO-localization
   Andreas Hansen         : Spin unrestricted coupled pair/coupled cluster methods
   Ingolf Harden          : AUTO-CI MPn and infrastructure 
   Benjamin Helmich-Paris : MC-RPA, TRAH-(SCF,CASSCF), AVAS, COSX integrals, SCF dyn. polar.
   Lee Huntington         : MR-EOM, pCC
   Robert Izsak           : Overlap fitted RIJCOSX, COSX-SCS-MP3, EOM
   Riya Kayal             : Wick's Theorem for AUTO-CI, AUTO-CI UHF-CCSDT
   Emily Kempfer          : AUTO-CI, RHF CISDT and CCSDT
   Christian Kollmar      : KDIIS, OOCD, Brueckner-CCSD(T), CCSD density, CASPT2, CASPT2-K, improved NEVPT2
   Axel Koslowski         : Symmetry handling
   Simone Kossmann        : Meta GGA functionals, TD-DFT gradient, OOMP2, (MP2 Hessian; deprecated post 5.0)
   Lucas Lang             : DCDCAS
   Marvin Lechner         : AUTO-CI (C++ implementation), FIC-MRCC
   Spencer Leger          : CASSCF response
   Dagmar Lenk            : GEPOL surface, SMD, ORCA-2-JSON
   Dimitrios Liakos       : Extrapolation schemes; Compound Job, initial MDCI parallelization
   Dimitrios Manganas     : Further ROCIS development; embedding schemes. LFT, Crystal Embedding
   Dimitrios Pantazis     : SARC Basis sets
   Anastasios Papadopoulos: AUTO-CI, single reference methods and gradients
   Taras Petrenko         : pre 6.0 DFT Hessian and TD-DFT gradient, (ASA, deprecated), ECA, 1-Electron XAS/XES, NRVS
   Peter Pinski           : DLPNO-MP2, DLPNO-MP2 Gradient
   Christoph Reimann      : Effective Core Potentials
   Marius Retegan         : Local ZFS, SOC
   Christoph Riplinger    : Optimizer, TS searches, QM/MM, DLPNO-CCSD(T), (RO)-DLPNO pert. Triples
   Michael Roemelt        : Original ROCIS implementation
   Masaaki Saitow         : Open-shell DLPNO-CCSD energy and density
   Barbara Sandhoefer     : DKH picture change effects
   Kantharuban Sivalingam : CASSCF convergence/infrastructure, NEVPT2 and variants, FIC-MRCI
   Bernardo de Souza      : ESD, SOC TD-DFT
   Georgi Stoychev        : AutoAux, RI-MP2 NMR, DLPNO-MP2 response, X2C
   Van Anh Tran           : RI-MP2 g-tensors
   Willem Van den Heuvel  : Paramagnetic NMR
   Zikuan Wang            : NOTCH, Electric field optimization 
   Frank Wennmohs         : Technical directorship and infrastructure
   Hang Xu                : AUTO-CI-Response properties 


 We gratefully acknowledge several colleagues who have allowed us to
 interface, adapt or use parts of their codes:
   Stefan Grimme, W. Hujo, H. Kruse, P. Pracht,  : VdW corrections, initial TS optimization,
                  C. Bannwarth, S. Ehlert,         DFT functionals, gCP, sTDA/sTD-DF
                  L. Wittmann, M. Mueller
   Ed Valeev, F. Pavosevic, A. Kumar             : LibInt (2-el integral package), F12 methods
   Garnet Chan, S. Sharma, J. Yang, R. Olivares  : DMRG
   Ulf Ekstrom                                   : XCFun DFT Library
   Mihaly Kallay                                 : mrcc  (arbitrary order and MRCC methods)
   Frank Weinhold                                : gennbo (NPA and NBO analysis)
   Simon Mueller                                 : openCOSMO-RS
   Christopher J. Cramer and Donald G. Truhlar   : smd solvation model
   Lars Goerigk                                  : TD-DFT with DH, B97 family of functionals
   V. Asgeirsson, H. Jonsson                     : NEB implementation
   FAccTs GmbH                                   : IRC, NEB, NEB-TS, DLPNO-Multilevel, CI-OPT
                                                   MM, QMMM, 2- and 3-layer-ONIOM, Crystal-QMMM,
                                                   LR-CPCM, SF, NACMEs, symmetry and pop. for TD-DFT,
                                                   nearIR, NL-DFT gradient (VV10), updates on ESD,
                                                   ML-optimized integration grids, MBIS, APM,
                                                   GOAT, DOCKER, SOLVATOR, interface openCOSMO-RS
   S Lehtola, MJT Oliveira, MAL Marques          : LibXC Library
   Liviu Ungur et al                             : ANISO software


 Your calculation uses the libint2 library for the computation of 2-el integrals
 For citations please refer to: http://libint.valeyev.net

 Your ORCA version has been built with support for libXC version: 6.2.2
 For citations please refer to: https://libxc.gitlab.io

 This ORCA versions uses:
   CBLAS   interface :  Fast vector & matrix operations
   LAPACKE interface :  Fast linear algebra routines
   SCALAPACK package :  Parallel linear algebra routines
   Shared memory     :  Shared parallel matrices
   BLAS/LAPACK       :  OpenBLAS 0.3.27  USE64BITINT DYNAMIC_ARCH NO_AFFINITY Haswell SINGLE_THREADED
        Core in use  :  Haswell
   Copyright (c) 2011-2014, The OpenBLAS Project


================================================================================

----- Orbital basis set information -----
Your calculation utilizes the basis: aug-cc-pVDZ 
    H, B-Ne : Obtained from the ccRepo (grant-hill.group.shef.ac.uk/ccrepo) Feb. 2017
              R. A. Kendall, T. H. Dunning, Jr., R. J. Harrison, J. Chem. Phys. 96, 6796 (1992)
         He : Obtained from the ccRepo (grant-hill.group.shef.ac.uk/ccrepo) Feb. 2017
              D. E. Woon, T. H. Dunning, Jr., J. Chem. Phys. 100, 2975 (1994)
  Li-Be, Na : Obtained from the ccRepo (grant-hill.group.shef.ac.uk/ccrepo) Feb. 2017
              B. P. Prascher, D. E. Woon, K. A. Peterson, T. H. Dunning, Jr., A. K. Wilson, Theor. Chem. Acc. 128, 69 (2011)
         Mg : Obtained from the Peterson Research Group Website (tyr0.chem.wsu.edu/~kipeters) Feb. 2017
              B. P. Prascher, D. E. Woon, K. A. Peterson, T. H. Dunning, Jr., A. K. Wilson, Theor. Chem. Acc. 128, 69 (2011)
      Al-Ar : Obtained from the ccRepo (grant-hill.group.shef.ac.uk/ccrepo) Feb. 2017
              D. E. Woon, T. H. Dunning, Jr., J. Chem. Phys. 98, 1358 (1993)
      Sc-Zn : Obtained from the ccRepo (grant-hill.group.shef.ac.uk/ccrepo) Feb. 2017
              N. B. Balabanov, K. A. Peterson, J. Chem. Phys. 123, 064107 (2005)
              N. B. Balabanov, K. A. Peterson, J. Chem. Phys. 125, 074110 (2006)
      Ga-Kr : Obtained from the ccRepo (grant-hill.group.shef.ac.uk/ccrepo) Feb. 2017
              A. K. Wilson, D. E. Woon, K. A. Peterson, T. H. Dunning, Jr., J. Chem. Phys. 110, 7667 (1999)

----- AuxC basis set information -----
Your calculation utilizes the auxiliary basis: aug-cc-pVDZ/C 
  H-He, B, Ne, Al-Ar, Ga-Ge, Se-Br : Obtained from the EMSL Basis Set Exchange (bse.pnl.gov) Feb. 2017
                                     F. Weigend, A. Kohn, C. Hattig, J. Chem. Phys. 116, 3175 (2002)
                            Be, Mg : Obtained from the TURBOMOLE 7.0 basis set library
                                     C. Haettig, Phys. Chem. Chem. Phys. 7, 59 (2005)
                               C-F : Obtained from the EMSL Basis Set Exchange (bse.pnl.gov) Feb. 2017
                                     C. Haettig, Phys. Chem. Chem. Phys. 7, 59 (2005)
                                     F. Weigend, A. Kohn, C. Hattig, J. Chem. Phys. 116, 3175 (2002)
                                As : Obtained from the EMSL Basis Set Exchange (bse.pnl.gov) Feb. 2017
                                     C. Haettig, G. Schmitz, J. Kossmann, Phys. Chem. Chem. Phys. 14, 6549 (2012)
                                Kr : Obtained from the TURBOMOLE 7.0 basis set library
                                     F. Weigend, A. Kohn, C. Hattig, J. Chem. Phys. 116, 3175 (2002)
                                     S function revised in Sep. 2009

================================================================================
                                        WARNINGS
                       Please study these warnings very carefully!
================================================================================


WARNING: Post HF methods need fully converged wavefunctions
  ===> : Setting SCFConvForced true
         You can overwrite this default with %scf ConvForced false 


================================================================================
                                       INPUT FILE
================================================================================
NAME = AR3LD_2.8_2.8_3.6.inp
|  1> # MP2 scan of the potential energy curve for Ar...Ar
|  2>                 ! HFLD aug-cc-pvdz aug-cc-pvdz/C verytightscf
|  3>                 *xyz 0 1
|  4>                 Ar(1)	0    0	0.00000000000000
|  5>                 Ar(2)	3.6	0    0.00000000000000
|  6>                 Ar(3)	1.8	2.1447610589527213    0.00000000000000
|  7>                 **                         ****END OF INPUT****
================================================================================

                       ****************************
                       * Single Point Calculation *
                       ****************************

---------------------------------
CARTESIAN COORDINATES (ANGSTROEM)
---------------------------------
  Ar     0.000000    0.000000    0.000000
  Ar     3.600000    0.000000    0.000000
  Ar     1.800000    2.144761    0.000000

----------------------------
CARTESIAN COORDINATES (A.U.)
----------------------------
  NO LB      ZA    FRAG     MASS         X           Y           Z
   0 Ar   18.0000    1    39.948    0.000000    0.000000    0.000000
   1 Ar   18.0000    2    39.948    6.803014    0.000000    0.000000
   2 Ar   18.0000    3    39.948    3.401507    4.053011    0.000000

----------------------------------------------
CARTESIAN COORDINATES OF FRAGMENTS (ANGSTROEM)
----------------------------------------------

 FRAGMENT 1 
  Ar    0.000000    0.000000    0.000000

 FRAGMENT 2 
  Ar    3.600000    0.000000    0.000000

 FRAGMENT 3 
  Ar    1.800000    2.144761    0.000000

--------------------------------
INTERNAL COORDINATES (ANGSTROEM)
--------------------------------
 Ar     0   0   0     0.000000000000     0.00000000     0.00000000
 Ar     1   0   0     3.600000000000     0.00000000     0.00000000
 Ar     1   2   0     2.800000000000    49.99479912     0.00000000

---------------------------
INTERNAL COORDINATES (A.U.)
---------------------------
 Ar     0   0   0     0.000000000000     0.00000000     0.00000000
 Ar     1   0   0     6.803014082117     0.00000000     0.00000000
 Ar     1   2   0     5.291233174980    49.99479912     0.00000000

---------------------
BASIS SET INFORMATION
---------------------
There are 1 groups of distinct atoms

 Group   1 Type Ar  : 35s16p2d contracted to 5s4p2d pattern {11111111/7711/11}

Atom   0Ar   basis set group =>   1
Atom   1Ar   basis set group =>   1
Atom   2Ar   basis set group =>   1
---------------------------------
AUXILIARY/C BASIS SET INFORMATION
---------------------------------
There are 1 groups of distinct atoms

 Group   1 Type Ar  : 10s8p6d4f contracted to 10s8p6d4f pattern {1111111111/11111111/111111/1111}

Atom   0Ar   basis set group =>   1
Atom   1Ar   basis set group =>   1
Atom   2Ar   basis set group =>   1
------------------------------------------------------------------------------
                             ORCA STARTUP CALCULATIONS
------------------------------------------------------------------------------
------------------------------------------------------------------------------
                   ___                                                        
                  /   \      - P O W E R E D   B Y -                         
                 /     \                                                     
                 |  |  |   _    _      __       _____    __    __             
                 |  |  |  | |  | |    /  \     |  _  \  |  |  /  |          
                  \  \/   | |  | |   /    \    | | | |  |  | /  /          
                 / \  \   | |__| |  /  /\  \   | |_| |  |  |/  /          
                |  |  |   |  __  | /  /__\  \  |    /   |      \           
                |  |  |   | |  | | |   __   |  |    \   |  |\   \          
                \     /   | |  | | |  |  |  |  | |\  \  |  | \   \       
                 \___/    |_|  |_| |__|  |__|  |_| \__\ |__|  \__/        
                                                                              
                      - O R C A' S   B I G   F R I E N D -                    
                                      &                                       
                       - I N T E G R A L  F E E D E R -                       
                                                                              
 v1 FN, 2020, v2 2021, v3 2022-2024                                           
------------------------------------------------------------------------------


----------------------
SHARK INTEGRAL PACKAGE
----------------------

Number of atoms                             ...      3
Number of basis functions                   ...    150
Number of shells                            ...     72
Maximum angular momentum                    ...      2
Integral batch strategy                     ... SHARK/LIBINT Hybrid
RI-J (if used) integral strategy            ... SPLIT-RIJ (Revised 2003 algorithm where possible)
Printlevel                                  ...      1
Contraction scheme used                     ... PARTIAL GENERAL contraction
Prescreening option                         ... SCHWARTZ
   Thresh                                   ... 1.000e-12
   Tcut                                     ... 1.000e-14
   Tpresel                                  ... 1.000e-14 
Coulomb Range Separation                    ... NOT USED
Exchange Range Separation                   ... NOT USED
Multipole approximations                    ... NOT USED
Finite Nucleus Model                        ... NOT USED
CABS basis                                  ... NOT available
Auxiliary Coulomb fitting basis             ... NOT available
Auxiliary J/K fitting basis                 ... NOT available
Auxiliary Correlation fitting basis         ... AVAILABLE
   # of basis functions in Aux-C            ...    276
   # of shells in Aux-C                     ...     84
   Maximum angular momentum in Aux-C        ...      3
Auxiliary 'external' fitting basis          ... NOT available

Checking pre-screening integrals            ... done (  0.0 sec) Dimension = 72
Save PGC pre-screening integrals            ... done (  0.0 sec) Dimension = 72
Calculate PGC overlap integrals             ... done (  0.0 sec) Dimension = 33
Calculating pre-screening integrals (ORCA)  ... done (  0.1 sec) Dimension = 33
Check shell pair data                       ... done (  0.0 sec)
Shell pair information
Shell pair cut-off parameter TPreSel        ...   1.0e-14
Total number of shell pairs                 ...      2628
Shell pairs after pre-screening             ...      1846
Total number of primitive shell pairs       ...      2628
Primitive shell pairs kept                  ...      1846
          la=0 lb=0:    470 shell pairs
          la=1 lb=0:    695 shell pairs
          la=1 lb=1:    276 shell pairs
          la=2 lb=0:    224 shell pairs
          la=2 lb=1:    160 shell pairs
          la=2 lb=2:     21 shell pairs

Calculating one electron integrals          ... done (  0.0 sec)
Calculating RI/C V-Matrix + Cholesky decomp.... done (  0.0 sec)
Calculating Nuclear repulsion               ... done (  0.0 sec) ENN=    170.092674096429 Eh

Diagonalization of the overlap matrix:
Smallest eigenvalue                        ... 1.405e-02
Time for diagonalization                   ...    0.001 sec
Threshold for overlap eigenvalues          ... 1.000e-07
Number of eigenvalues below threshold      ... 0
Time for construction of square roots      ...    0.000 sec
Total time needed                          ...    0.001 sec

-------------------
DFT GRID GENERATION
-------------------

General Integration Accuracy     IntAcc      ... 4.388
Radial Grid Type                 RadialGrid  ... OptM3 with GC (2021)
Angular Grid (max. ang.)         AngularGrid ... 4 (Lebedev-302)
Angular grid pruning method      GridPruning ... 4 (adaptive)
Weight generation scheme         WeightScheme... mBecke (2022)
Basis function cutoff            BFCut       ... 1.0000e-12
Integration weight cutoff        WCut        ... 1.0000e-14
Partially contracted basis set               ... off
Rotationally invariant grid construction     ... off
Angular grids for H and He will be reduced by one unit

Total number of grid points                  ...    22068
Total number of batches                      ...      346
Average number of points per batch           ...       63
Average number of grid points per atom       ...     7356

---------------------
SHARK GRID GENERATION
---------------------

General Integration Accuracy     IntAcc      ... 4.388
Radial Grid Type                 RadialGrid  ... OptM3 with GC (2021)
Angular Grid (max. ang.)         AngularGrid ... 4 (Lebedev-302)
Angular grid pruning method      GridPruning ... 4 (adaptive)
Weight generation scheme         WeightScheme... mBecke (2022)
Basis function cutoff            BFCut       ... 1.0000e-12
Integration weight cutoff        WCut        ... 1.0000e-14
Partially contracted basis set               ... off
Rotationally invariant grid construction     ... off
Angular grids for H and He will be reduced by one unit
Core-polarized basis detected: some atoms will have their core
                               angular grid increased.
Steep s-basis detected: some atoms will have their radial
                        grid points doubled.

Total number of grid points                  ...    57992
Total number of batches                      ...      907
Average number of points per batch           ...       63
Average number of grid points per atom       ...    19331
Initializing property integral containers    ... done (  0.0 sec)

SHARK setup successfully completed in   1.6 seconds

Maximum memory used throughout the entire STARTUP-calculation: 27.6 MB
-------------------------------------------------------------------------------
                                 ORCA GUESS
                   Start orbitals & Density for SCF / CASSCF
-------------------------------------------------------------------------------

------------
SCF SETTINGS
------------
Hamiltonian:
 Ab initio Hamiltonian  Method          .... Hartree-Fock(GTOs)


General Settings:
 Integral files         IntName         .... AR3LD_2.8_2.8_3.6
 Hartree-Fock type      HFTyp           .... RHF
 Total Charge           Charge          ....    0
 Multiplicity           Mult            ....    1
 Number of Electrons    NEL             ....   54
 Basis Dimension        Dim             ....   81
 Nuclear Repulsion      ENuc            ....    170.0926740964 Eh

Convergence Acceleration:
 AO-DIIS                CNVDIIS         .... on
   Start iteration      DIISMaxIt       ....    12
   Startup error        DIISStart       ....  0.200000
   # of expansion vecs  DIISMaxEq       ....     5
   Bias factor          DIISBfac        ....   1.050
   Max. coefficient     DIISMaxC        ....  10.000
 MO-DIIS                CNVKDIIS        .... off
 Trust-Rad. Augm. Hess. CNVTRAH         .... auto
   Auto Start mean grad. ratio tolernc. ....  1.125000
   Auto Start start iteration           ....    50
   Auto Start num. interpolation iter.  ....    10
   Max. Number of Micro iterations      ....    24
   Max. Number of Macro iterations      .... Maxiter - #DIIS iter
   Number of Davidson start vectors     ....     2
   Converg. threshold    (grad. norm)   ....   2.000e-06
   Grad. Scal. Fac. for Micro threshold ....   0.100
   Minimum threshold for Micro iter.    ....   1.000e-02
   NR start threshold (gradient norm)   ....   1.000e-04
   Initial trust radius                 ....   0.400
   Minimum AH scaling param. (alpha)    ....   1.000
   Maximum AH scaling param. (alpha)    .... 1000.000
   Quad. conv. algorithm                .... NR
   White noise on init. David. guess    .... on
   Maximum white noise                  ....   0.010
   Pseudo random numbers                .... off
   Inactive MOs                         .... canonical
   Orbital update algorithm             .... Taylor
   Preconditioner                       .... Diag
   Full preconditioner red. dimension   ....   250
 SOSCF                  CNVSOSCF        .... on
   Start iteration      SOSCFMaxIt      ....   150
   Startup grad/error   SOSCFStart      ....  0.003300
   Hessian update       SOSCFHessUp     .... L-BFGS
 Level Shifting         CNVShift        .... on
   Level shift para.    LevelShift      ....    0.2500
   Turn off err/grad.   ShiftErr        ....    0.0010
 Zerner damping         CNVZerner       .... off
 Static damping         CNVDamp         .... on
   Fraction old density DampFac         ....    0.7000
   Max. Damping (<1)    DampMax         ....    0.9800
   Min. Damping (>=0)   DampMin         ....    0.0000
   Turn off err/grad.   DampErr         ....    0.1000

SCF Procedure:
 Maximum # iterations   MaxIter         ....   125
 SCF integral mode      SCFMode         .... Direct
   Integral package                     .... SHARK and LIBINT hybrid scheme
 Reset frequency        DirectResetFreq ....    20
 Integral Threshold     Thresh          ....  1.000e-12 Eh
 Primitive CutOff       TCut            ....  1.000e-14 Eh

Convergence Tolerance:
 Convergence Check Mode ConvCheckMode   .... Total+1el-Energy
 Convergence forced     ConvForced      .... 1
 Energy Change          TolE            ....  1.000e-09 Eh
 1-El. energy change                    ....  1.000e-06 Eh
 Orbital Gradient       TolG            ....  2.000e-06
 Orbital Rotation angle TolX            ....  2.000e-06
 DIIS Error             TolErr          ....  1.000e-08

------------------------------
INITIAL GUESS: MODEL POTENTIAL
------------------------------
Loading Hartree-Fock densities                     ... done
Calculating cut-offs                               ... done
Initializing the effective Hamiltonian             ... done
Setting up the integral package (SHARK)            ... done
Starting the Coulomb interaction                   ... done (   0.0 sec)
Making the grid                                    ... done (   0.0 sec)
Mapping shells                                     ... done
Starting the XC term evaluation                    ... done (   0.0 sec)
Transforming the Hamiltonian                       ... done (   0.0 sec)
Diagonalizing the Hamiltonian                      ... done (   0.0 sec)
Back transforming the eigenvectors                 ... done (   0.0 sec)
Now organizing SCF variables                       ... done
                      ------------------
                      INITIAL GUESS DONE (   0.1 sec)
                      ------------------
             **** ENERGY FILE WAS UPDATED (AR3LD_2.8_2.8_3.6.en.tmp) ****
Finished Guess after   0.1 sec
Maximum memory used throughout the entire GUESS-calculation: 6.8 MB

-------------------------------------------------------------------------------------------
                                      ORCA LEAN-SCF
                              memory conserving SCF solver
-------------------------------------------------------------------------------------------

----------------------------------------D-I-I-S--------------------------------------------
Iteration    Energy (Eh)           Delta-E    RMSDP     MaxDP     DIISErr   Damp  Time(sec)
-------------------------------------------------------------------------------------------
               ***  Starting incremental Fock matrix formation  ***
    1    -1580.3564607629605234     0.00e+00  1.19e-03  1.80e-02  9.02e-02  0.700   0.8
    2    -1580.3621001991846242    -5.64e-03  9.40e-04  1.31e-02  6.46e-02  0.700   0.7
                               ***Turning on AO-DIIS***
    3    -1580.3662254153446156    -4.13e-03  7.52e-04  9.63e-03  4.60e-02  0.700   0.7
    4    -1580.3692049407291051    -2.98e-03  1.85e-03  2.26e-02  3.23e-02  0.000   0.7
                              *** Initializing SOSCF ***
---------------------------------------S-O-S-C-F--------------------------------------
Iteration    Energy (Eh)           Delta-E    RMSDP     MaxDP     MaxGrad    Time(sec)
--------------------------------------------------------------------------------------
    5    -1580.3765342339888775    -7.33e-03  9.27e-05  9.88e-04  1.03e-03     0.7
               *** Restarting incremental Fock matrix formation ***
    6    -1580.3765447533564839    -1.05e-05  4.29e-05  5.71e-04  2.77e-04     0.7
    7    -1580.3765464753523702    -1.72e-06  1.55e-05  1.89e-04  6.74e-05     0.6
    8    -1580.3765465858496100    -1.10e-07  8.70e-07  1.36e-05  8.21e-06     0.6
    9    -1580.3765465864130420    -5.63e-10  1.67e-07  3.02e-06  1.35e-06     0.5
                 **** Energy Check signals convergence ****

               *****************************************************
               *                     SUCCESS                       *
               *           SCF CONVERGED AFTER   9 CYCLES          *
               *****************************************************

             **** ENERGY FILE WAS UPDATED (AR3LD_2.8_2.8_3.6.en.tmp) ****

----------------
TOTAL SCF ENERGY
----------------

Total Energy       :      -1580.37654658641304 Eh          -43004.23213 eV

Components:
Nuclear Repulsion  :        170.09267409642860 Eh            4628.45697 eV
Electronic Energy  :      -1750.46922068284152 Eh          -47632.68909 eV
One Electron Energy:      -2524.89460371156883 Eh          -68705.87511 eV
Two Electron Energy:        774.42538302872731 Eh           21073.18601 eV

Virial components:
Potential Energy   :      -3161.01576890100932 Eh          -86015.61202 eV
Kinetic Energy     :       1580.63922231459605 Eh           43011.37990 eV
Virial Ratio       :          1.99983381677205

---------------
SCF CONVERGENCE
---------------

  Last Energy change         ...    5.6343e-10  Tolerance :   1.0000e-09
  Last MAX-Density change    ...    3.0215e-06  Tolerance :   1.0000e-08
  Last RMS-Density change    ...    1.6662e-07  Tolerance :   1.0000e-09
  Last DIIS Error            ...    1.0289e-03  Tolerance :   1.0000e-08
  Last Orbital Gradient      ...    1.3459e-06  Tolerance :   2.0000e-06
  Last Orbital Rotation      ...    1.9629e-06  Tolerance :   2.0000e-06


----------------
ORBITAL ENERGIES
----------------

  NO   OCC          E(Eh)            E(eV) 
   0   2.0000    -118.605947     -3227.4319 
   1   2.0000    -118.605947     -3227.4319 
   2   2.0000    -118.601020     -3227.2978 
   3   2.0000     -12.319039      -335.2181 
   4   2.0000     -12.319032      -335.2179 
   5   2.0000     -12.314983      -335.1077 
   6   2.0000      -9.567630      -260.3485 
   7   2.0000      -9.567629      -260.3484 
   8   2.0000      -9.567531      -260.3458 
   9   2.0000      -9.567531      -260.3457 
  10   2.0000      -9.567530      -260.3457 
  11   2.0000      -9.567528      -260.3457 
  12   2.0000      -9.563503      -260.2361 
  13   2.0000      -9.563462      -260.2350 
  14   2.0000      -9.563386      -260.2330 
  15   2.0000      -1.292482       -35.1702 
  16   2.0000      -1.278141       -34.7800 
  17   2.0000      -1.266628       -34.4667 
  18   2.0000      -0.639162       -17.3925 
  19   2.0000      -0.630368       -17.1532 
  20   2.0000      -0.603526       -16.4228 
  21   2.0000      -0.597108       -16.2481 
  22   2.0000      -0.590136       -16.0584 
  23   2.0000      -0.583563       -15.8795 
  24   2.0000      -0.579602       -15.7718 
  25   2.0000      -0.551535       -15.0080 
  26   2.0000      -0.547970       -14.9110 
  27   0.0000       0.116195         3.1618 
  28   0.0000       0.117668         3.2019 
  29   0.0000       0.135622         3.6905 
  30   0.0000       0.137754         3.7485 
  31   0.0000       0.169280         4.6063 
  32   0.0000       0.173126         4.7110 
  33   0.0000       0.173552         4.7226 
  34   0.0000       0.179878         4.8947 
  35   0.0000       0.209717         5.7067 
  36   0.0000       0.213231         5.8023 
  37   0.0000       0.309688         8.4270 
*Only the first 10 virtual orbitals were printed.

                    ********************************
                    * MULLIKEN POPULATION ANALYSIS *
                    ********************************

-------------------------
MULLIKEN FRAGMENT CHARGES
-------------------------
 Fragment   0 :  -0.000739
 Fragment   1 :  -0.000739
 Fragment   2 :   0.001479
Sum of fragment charges:   -0.0000000

---------------------------------
MULLIKEN FRAGMENT OVERLAP CHARGES
---------------------------------
                  0          1          2    
      0      18.064788  -0.000182  -0.127914
      1      -0.000182  18.064788  -0.127914
      2      -0.127914  -0.127914  18.126436

-----------------------
MULLIKEN ATOMIC CHARGES
-----------------------
   0 Ar:   -0.000739
   1 Ar:   -0.000739
   2 Ar:    0.001479
Sum of atomic charges:   -0.0000000

--------------------------------
MULLIKEN REDUCED ORBITAL CHARGES
--------------------------------
  0 Ars       :     5.995180  s :     5.995180
      pz      :     3.999677  p :    12.004175
      px      :     4.002182
      py      :     4.002316
      dz2     :     0.000145  d :     0.001385
      dxz     :     0.000160
      dyz     :     0.000194
      dx2y2   :     0.000397
      dxy     :     0.000489

  1 Ars       :     5.995180  s :     5.995180
      pz      :     3.999677  p :    12.004175
      px      :     4.002182
      py      :     4.002316
      dz2     :     0.000145  d :     0.001385
      dxz     :     0.000160
      dyz     :     0.000194
      dx2y2   :     0.000397
      dxy     :     0.000489

  2 Ars       :     5.989159  s :     5.989159
      pz      :     3.999276  p :    12.006618
      px      :     4.003641
      py      :     4.003701
      dz2     :     0.000169  d :     0.002744
      dxz     :     0.000280
      dyz     :     0.000383
      dx2y2   :     0.000579
      dxy     :     0.001333



                     *******************************
                     * LOEWDIN POPULATION ANALYSIS *
                     *******************************

------------------------
LOEWDIN FRAGMENT CHARGES
------------------------
 Fragment   0 :   0.003663
 Fragment   1 :   0.003663
 Fragment   2 :  -0.007326

----------------------------
LOEWDIN FRAGMENT BOND ORDERS
----------------------------
                  0          1          2    
      0      17.996337   0.053175   0.278215
      1       0.053175  17.996337   0.278215
      2       0.278215   0.278215  18.007326

----------------------
LOEWDIN ATOMIC CHARGES
----------------------
   0 Ar:    0.003663
   1 Ar:    0.003663
   2 Ar:   -0.007326

-------------------------------
LOEWDIN REDUCED ORBITAL CHARGES
-------------------------------
  0 Ars       :     5.968096  s :     5.968096
      pz      :     3.998334  p :    12.004307
      px      :     4.004138
      py      :     4.001834
      dz2     :     0.005203  d :     0.023935
      dxz     :     0.000601
      dyz     :     0.000883
      dx2y2   :     0.002206
      dxy     :     0.015041

  1 Ars       :     5.968096  s :     5.968096
      pz      :     3.998334  p :    12.004307
      px      :     4.004138
      py      :     4.001834
      dz2     :     0.005203  d :     0.023935
      dxz     :     0.000601
      dyz     :     0.000883
      dx2y2   :     0.002206
      dxy     :     0.015041

  2 Ars       :     5.953314  s :     5.953314
      pz      :     3.997385  p :    12.007259
      px      :     3.999978
      py      :     4.009895
      dz2     :     0.010490  d :     0.046753
      dxz     :     0.001213
      dyz     :     0.001765
      dx2y2   :     0.003574
      dxy     :     0.029711



                      *****************************
                      * MAYER POPULATION ANALYSIS *
                      *****************************

  NA   - Mulliken gross atomic population
  ZA   - Total nuclear charge
  QA   - Mulliken gross atomic charge
  VA   - Mayer's total valence
  BVA  - Mayer's bonded valence
  FA   - Mayer's free valence

  ATOM       NA         ZA         QA         VA         BVA        FA
  0 Ar    18.0007    18.0000    -0.0007    -0.0259    -0.0259    -0.0000
  1 Ar    18.0007    18.0000    -0.0007    -0.0259    -0.0259    -0.0000
  2 Ar    17.9985    18.0000     0.0015    -0.0582    -0.0582    -0.0000

  Mayer bond orders larger than 0.100000
  => no bond orders to print

-------
TIMINGS
-------

Total SCF time: 0 days 0 hours 0 min 5 sec 

Total time                  ....       5.883 sec
Sum of individual times     ....       5.876 sec  ( 99.9%)

SCF preparation             ....       0.052 sec  (  0.9%)
Fock matrix formation       ....       5.802 sec  ( 98.6%)
  Startup                   ....       0.000 sec  (  0.0% of F)
  Coulomb+Exchange Fock     ....       5.798 sec  ( 99.9% of F)
Diagonalization             ....       0.000 sec  (  0.0%)
Density matrix formation    ....       0.003 sec  (  0.0%)
Total Energy calculation    ....       0.001 sec  (  0.0%)
Population analysis         ....       0.002 sec  (  0.0%)
Orbital Transformation      ....       0.003 sec  (  0.1%)
Orbital Orthonormalization  ....       0.000 sec  (  0.0%)
DIIS solution               ....       0.010 sec  (  0.2%)
SOSCF solution              ....       0.003 sec  (  0.1%)
Finished LeanSCF after   5.9 sec

Maximum memory used throughout the entire LEANSCF-calculation: 8.8 MB

------------------------------------------------------------------------------
                         ORCA PROPERTY INTEGRAL CALCULATIONS
------------------------------------------------------------------------------

GBWName                                   ... AR3LD_2.8_2.8_3.6.gbw
Number of atoms                           ...      3
Number of basis functions                 ...    150
Max core memory                           ...   1024 MB

Dipole integrals                          ... YES
Quadrupole integrals                      ...  NO
Linear momentum integrals                 ... YES
Angular momentum integrals                ... YES
Higher moments length integrals           ...  NO
Higher moments velocity integrals         ...  NO
Kinetic energy integrals                  ...  NO
GIAO right hand sides                     ...  NO
GIAO dipole derivative integrals          ...  NO
SOC integrals                             ...  NO
EPR diamagnetic integrals (GIAO)          ...  NO
EPR gauge integrals                       ...  NO
Field gradient integrals                  ...  NO (   0 nuclei)
Spin-dipole/Fermi contact integrals       ...  NO (   0 nuclei)
Contact density integrals                 ...  NO (   0 nuclei)
Nucleus-orbit integrals                   ...  NO (   0 nuclei)
Geometric perturbations                   ...  NO (   3 nuclei)

Choice of electric origin   ... Center of mass
Position of electric origin ... (  3.4015,  1.3510,  0.0000) 
Choice of magnetic origin   ... GIAO
Position of magnetic origin ... (  0.0000,  0.0000,  0.0000) 

Calculating integrals                     ... Electric Dipole (Length)     done (  0.0 sec)
Calculating integrals                     ... Linear Momentum              done (  0.0 sec)
Calculating integrals                     ... Angular Momentum  (ElOri)    done (  0.0 sec)

Property integrals calculated in   0.0 sec

Maximum memory used throughout the entire PROPINT-calculation: 6.9 MB


--------------------------------------------------------------------------------
                             ORCA-MATRIX DRIVEN CI
--------------------------------------------------------------------------------


Wavefunction type
-----------------
Correlation treatment                      ...      CCSD     
Single excitations                         ... ON
Orbital optimization                       ... OFF
Calculation of Z vector                    ... OFF
Calculation of Brueckner orbitals          ... OFF
Perturbative triple excitations            ... OFF
Calculation of F12 correction              ... OFF
Frozen core treatment                      ... chemical core (30 el)
Reference Wavefunction                     ... RHF
  Internal Orbitals:    15 ...   26 ( 12 MO's/ 24 electrons)
  Virtual  Orbitals:    27 ...   80 ( 54 MO's              )
Number of AO's                             ...     81
Number of electrons                        ...     54
Number of correlated electrons             ...     24

Algorithmic settings
--------------------
Integral transformation                    ... All integrals via the RI transformation
K(C) Formation                             ... RI-DLPNO
   PNO-Integral Storage                    ... ON DISK
   PNO occupation number cut-off           ... 3.330e-07
   Singles PNO occupation number cut-off   ... 9.990e-09
   PNO Mulliken prescreening cut-off       ... 1.000e-03
   Domain cut-off (Mulliken population)    ... 1.000e-03
   PNO Normalization                       ...    1
Maximum number of iterations               ...        50
Convergence tolerance (max. residuum)      ... 1.000e-06
Level shift for amplitude update           ... 2.000e-01
Maximum number of DIIS vectors             ...         7
DIIS turned on at iteration                ...         0
Damping before turning on DIIS             ...     0.500
Damping after turning on DIIS              ...     0.000
Pair specific amplitude update             ... OFF
Natural orbital iterations                 ... OFF
Perturbative natural orbital generation    ... OFF
Printlevel                                 ... 2

Singles Fock matrix elements calculated using PNOs.

Memory handling:
----------------
Maximum memory for working arrays          ...    512 MB
Data storage in matrix containers          ... UNCOMPRESSED
Data type for integral storage             ... DOUBLE
In-Core Storage of quantities:
   Amplitudes+Sigma Vector      ... NO
   J+K operators                ... NO
   DIIS vectors                 ... NO
   3-external integrals         ... NO
   4-external integrals         ... NO

Localization treatment:
-----------------------
Localization option                        ...    2
Localization threshhold                    ... -1.0e+00
Using relative localization threshhold     ... 1.0e-08
Neglect threshold for strong pairs         ... 1.000e-05 Eh
Prescreening threshold for very weak pairs ... 1.000e-07 Eh
Using randomized seed for localization     ... on

Initializing the integral package          ... done
Localizing the valence orbitals
Localizing the valence orbitals
------------------------------------------------------------------------------
                           ORCA ORBITAL LOCALIZATION
------------------------------------------------------------------------------

Input orbitals are from                  ... AR3LD_2.8_2.8_3.6.proc0.gbw
Output orbitals are to                   ... AR3LD_2.8_2.8_3.6.proc0.loc
Max. number of iterations                ... 128
Localizations seeded randomly            ... on
Convergence tolerance                    ... 2.000e-07
Using relative localization threshhold   ... 1.000e-08
Threshold for strong local MOs           ... 9.500e-01
Threshold for bond MOs                   ... 8.500e-01
Operator                                 ... 0
Orbital range for localization           ... 15 to 26
Localization criterion                   ... FOSTER-BOYS
Doing the dipole integrals     ... o.k.
Entering Jacobi type localization:
Using Cholesky decomposition as initial guess.
Initial value of the localization sum :   136.475544
ITERATION   0 : L=  143.4567111103 DL=  6.98e+00 (MAX-T)=  45.000 
ITERATION   1 : L=  143.4635534235 DL=  6.84e-03 (MAX-T)=   1.882 
ITERATION   2 : L=  143.4669750567 DL=  3.42e-03 (MAX-T)=   1.176 
ITERATION   3 : L=  143.4695589229 DL=  2.58e-03 (MAX-T)=   0.935 
ITERATION   4 : L=  143.4719699765 DL=  2.41e-03 (MAX-T)=   0.990 
ITERATION   5 : L=  143.4741767216 DL=  2.21e-03 (MAX-T)=   0.984 
ITERATION   6 : L=  143.4761609631 DL=  1.98e-03 (MAX-T)=   1.055 
ITERATION   7 : L=  143.4775781731 DL=  1.42e-03 (MAX-T)=   0.863 
ITERATION   8 : L=  143.4788614192 DL=  1.28e-03 (MAX-T)=   0.871 
ITERATION   9 : L=  143.4797614960 DL=  9.00e-04 (MAX-T)=   0.485 
ITERATION  10 : L=  143.4807893154 DL=  1.03e-03 (MAX-T)=   0.676 
ITERATION  11 : L=  143.4814909347 DL=  7.02e-04 (MAX-T)=   0.469 
ITERATION  12 : L=  143.4822112614 DL=  7.20e-04 (MAX-T)=   0.432 
ITERATION  13 : L=  143.4826507632 DL=  4.40e-04 (MAX-T)=   0.398 
ITERATION  14 : L=  143.4832047995 DL=  5.54e-04 (MAX-T)=   0.457 
ITERATION  15 : L=  143.4837935439 DL=  5.89e-04 (MAX-T)=   0.519 
ITERATION  16 : L=  143.4845882801 DL=  7.95e-04 (MAX-T)=   0.571 
ITERATION  17 : L=  143.4855405765 DL=  9.52e-04 (MAX-T)=   0.748 
ITERATION  18 : L=  143.4862095167 DL=  6.69e-04 (MAX-T)=   0.693 
ITERATION  19 : L=  143.4875633023 DL=  1.35e-03 (MAX-T)=   0.968 
ITERATION  20 : L=  143.4893495413 DL=  1.79e-03 (MAX-T)=   1.185 
ITERATION  21 : L=  143.4909195891 DL=  1.57e-03 (MAX-T)=   1.037 
ITERATION  22 : L=  143.4929582353 DL=  2.04e-03 (MAX-T)=   1.228 
ITERATION  23 : L=  143.4954678465 DL=  2.51e-03 (MAX-T)=   1.150 
ITERATION  24 : L=  143.4983119008 DL=  2.84e-03 (MAX-T)=   1.308 
ITERATION  25 : L=  143.5015205218 DL=  3.21e-03 (MAX-T)=   1.586 
ITERATION  26 : L=  143.5055163694 DL=  4.00e-03 (MAX-T)=   1.555 
ITERATION  27 : L=  143.5083418611 DL=  2.83e-03 (MAX-T)=   1.190 
ITERATION  28 : L=  143.5119246236 DL=  3.58e-03 (MAX-T)=   1.458 
ITERATION  29 : L=  143.5138368676 DL=  1.91e-03 (MAX-T)=   1.433 
ITERATION  30 : L=  143.5160446644 DL=  2.21e-03 (MAX-T)=   1.211 
ITERATION  31 : L=  143.5182450882 DL=  2.20e-03 (MAX-T)=   1.291 
ITERATION  32 : L=  143.5192916490 DL=  1.05e-03 (MAX-T)=   0.792 
ITERATION  33 : L=  143.5204257796 DL=  1.13e-03 (MAX-T)=   0.943 
ITERATION  34 : L=  143.5211918492 DL=  7.66e-04 (MAX-T)=   0.742 
ITERATION  35 : L=  143.5217747717 DL=  5.83e-04 (MAX-T)=   0.555 
ITERATION  36 : L=  143.5221259786 DL=  3.51e-04 (MAX-T)=   0.454 
ITERATION  37 : L=  143.5224403232 DL=  3.14e-04 (MAX-T)=   0.518 
ITERATION  38 : L=  143.5226825525 DL=  2.42e-04 (MAX-T)=   0.373 
ITERATION  39 : L=  143.5228255047 DL=  1.43e-04 (MAX-T)=   0.365 
ITERATION  40 : L=  143.5229602917 DL=  1.35e-04 (MAX-T)=   0.291 
ITERATION  41 : L=  143.5230477788 DL=  8.75e-05 (MAX-T)=   0.276 
ITERATION  42 : L=  143.5231160859 DL=  6.83e-05 (MAX-T)=   0.196 
ITERATION  43 : L=  143.5231784561 DL=  6.24e-05 (MAX-T)=   0.197 
ITERATION  44 : L=  143.5232215242 DL=  4.31e-05 (MAX-T)=   0.154 
ITERATION  45 : L=  143.5232538879 DL=  3.24e-05 (MAX-T)=   0.143 
ITERATION  46 : L=  143.5232769357 DL=  2.30e-05 (MAX-T)=   0.101 
ITERATION  47 : L=  143.5232933558 DL=  1.64e-05 (MAX-T)=   0.091 
ITERATION  48 : L=  143.5233060651 DL=  1.27e-05 (MAX-T)=   0.071 
ITERATION  49 : L=  143.5233151676 DL=  9.10e-06 (MAX-T)=   0.066 
ITERATION  50 : L=  143.5233231631 DL=  8.00e-06 (MAX-T)=   0.054 
ITERATION  51 : L=  143.5233284168 DL=  5.25e-06 (MAX-T)=   0.048 
ITERATION  52 : L=  143.5233341742 DL=  5.76e-06 (MAX-T)=   0.045 
ITERATION  53 : L=  143.5233390217 DL=  4.85e-06 (MAX-T)=   0.039 
ITERATION  54 : L=  143.5233427860 DL=  3.76e-06 (MAX-T)=   0.040 
ITERATION  55 : L=  143.5233463180 DL=  3.53e-06 (MAX-T)=   0.040 
ITERATION  56 : L=  143.5233496617 DL=  3.34e-06 (MAX-T)=   0.034 
ITERATION  57 : L=  143.5233524378 DL=  2.78e-06 (MAX-T)=   0.032 
ITERATION  58 : L=  143.5233555396 DL=  3.10e-06 (MAX-T)=   0.031 
ITERATION  59 : L=  143.5233577200 DL=  2.18e-06 (MAX-T)=   0.033 
ITERATION  60 : L=  143.5233606104 DL=  2.89e-06 (MAX-T)=   0.040 
ITERATION  61 : L=  143.5233628376 DL=  2.23e-06 (MAX-T)=   0.032 
ITERATION  62 : L=  143.5233647201 DL=  1.88e-06 (MAX-T)=   0.040 
ITERATION  63 : L=  143.5233672592 DL=  2.54e-06 (MAX-T)=   0.040 
ITERATION  64 : L=  143.5233693031 DL=  2.04e-06 (MAX-T)=   0.036 
ITERATION  65 : L=  143.5233718979 DL=  2.59e-06 (MAX-T)=   0.035 
ITERATION  66 : L=  143.5233743608 DL=  2.46e-06 (MAX-T)=   0.036 
ITERATION  67 : L=  143.5233768110 DL=  2.45e-06 (MAX-T)=   0.039 
ITERATION  68 : L=  143.5233788220 DL=  2.01e-06 (MAX-T)=   0.038 
ITERATION  69 : L=  143.5233812352 DL=  2.41e-06 (MAX-T)=   0.036 
ITERATION  70 : L=  143.5233831385 DL=  1.90e-06 (MAX-T)=   0.032 
ITERATION  71 : L=  143.5233853211 DL=  2.18e-06 (MAX-T)=   0.034 
ITERATION  72 : L=  143.5233880608 DL=  2.74e-06 (MAX-T)=   0.036 
ITERATION  73 : L=  143.5233904777 DL=  2.42e-06 (MAX-T)=   0.038 
ITERATION  74 : L=  143.5233925418 DL=  2.06e-06 (MAX-T)=   0.033 
ITERATION  75 : L=  143.5233949837 DL=  2.44e-06 (MAX-T)=   0.032 
ITERATION  76 : L=  143.5233975065 DL=  2.52e-06 (MAX-T)=   0.030 
ITERATION  77 : L=  143.5233996700 DL=  2.16e-06 (MAX-T)=   0.032 
ITERATION  78 : L=  143.5234022126 DL=  2.54e-06 (MAX-T)=   0.036 
ITERATION  79 : L=  143.5234041270 DL=  1.91e-06 (MAX-T)=   0.029 
ITERATION  80 : L=  143.5234060322 DL=  1.91e-06 (MAX-T)=   0.032 
ITERATION  81 : L=  143.5234084232 DL=  2.39e-06 (MAX-T)=   0.040 
ITERATION  82 : L=  143.5234101490 DL=  1.73e-06 (MAX-T)=   0.027 
ITERATION  83 : L=  143.5234122120 DL=  2.06e-06 (MAX-T)=   0.032 
ITERATION  84 : L=  143.5234142385 DL=  2.03e-06 (MAX-T)=   0.031 
ITERATION  85 : L=  143.5234166324 DL=  2.39e-06 (MAX-T)=   0.034 
ITERATION  86 : L=  143.5234191502 DL=  2.52e-06 (MAX-T)=   0.031 
ITERATION  87 : L=  143.5234218601 DL=  2.71e-06 (MAX-T)=   0.033 
ITERATION  88 : L=  143.5234235499 DL=  1.69e-06 (MAX-T)=   0.032 
ITERATION  89 : L=  143.5234259126 DL=  2.36e-06 (MAX-T)=   0.034 
ITERATION  90 : L=  143.5234284965 DL=  2.58e-06 (MAX-T)=   0.036 
ITERATION  91 : L=  143.5234303722 DL=  1.88e-06 (MAX-T)=   0.028 
ITERATION  92 : L=  143.5234325301 DL=  2.16e-06 (MAX-T)=   0.028 
ITERATION  93 : L=  143.5234351388 DL=  2.61e-06 (MAX-T)=   0.034 
ITERATION  94 : L=  143.5234368426 DL=  1.70e-06 (MAX-T)=   0.030 
ITERATION  95 : L=  143.5234389418 DL=  2.10e-06 (MAX-T)=   0.035 
ITERATION  96 : L=  143.5234409891 DL=  2.05e-06 (MAX-T)=   0.034 
ITERATION  97 : L=  143.5234432088 DL=  2.22e-06 (MAX-T)=   0.030 
ITERATION  98 : L=  143.5234453033 DL=  2.09e-06 (MAX-T)=   0.033 
ITERATION  99 : L=  143.5234475751 DL=  2.27e-06 (MAX-T)=   0.031 
ITERATION 100 : L=  143.5234495641 DL=  1.99e-06 (MAX-T)=   0.031 
ITERATION 101 : L=  143.5234521690 DL=  2.60e-06 (MAX-T)=   0.033 
ITERATION 102 : L=  143.5234539676 DL=  1.80e-06 (MAX-T)=   0.033 
ITERATION 103 : L=  143.5234561487 DL=  2.18e-06 (MAX-T)=   0.036 
ITERATION 104 : L=  143.5234581727 DL=  2.02e-06 (MAX-T)=   0.037 
ITERATION 105 : L=  143.5234602452 DL=  2.07e-06 (MAX-T)=   0.033 
ITERATION 106 : L=  143.5234625797 DL=  2.33e-06 (MAX-T)=   0.029 
ITERATION 107 : L=  143.5234648410 DL=  2.26e-06 (MAX-T)=   0.031 
ITERATION 108 : L=  143.5234666322 DL=  1.79e-06 (MAX-T)=   0.027 
ITERATION 109 : L=  143.5234688134 DL=  2.18e-06 (MAX-T)=   0.028 
ITERATION 110 : L=  143.5234706893 DL=  1.88e-06 (MAX-T)=   0.028 
ITERATION 111 : L=  143.5234731577 DL=  2.47e-06 (MAX-T)=   0.032 
ITERATION 112 : L=  143.5234750736 DL=  1.92e-06 (MAX-T)=   0.033 
ITERATION 113 : L=  143.5234773192 DL=  2.25e-06 (MAX-T)=   0.030 
ITERATION 114 : L=  143.5234792047 DL=  1.89e-06 (MAX-T)=   0.030 
ITERATION 115 : L=  143.5234808288 DL=  1.62e-06 (MAX-T)=   0.027 
ITERATION 116 : L=  143.5234828014 DL=  1.97e-06 (MAX-T)=   0.034 
ITERATION 117 : L=  143.5234847467 DL=  1.95e-06 (MAX-T)=   0.032 
ITERATION 118 : L=  143.5234868632 DL=  2.12e-06 (MAX-T)=   0.032 
ITERATION 119 : L=  143.5234891053 DL=  2.24e-06 (MAX-T)=   0.026 
ITERATION 120 : L=  143.5234912329 DL=  2.13e-06 (MAX-T)=   0.027 
ITERATION 121 : L=  143.5234933185 DL=  2.09e-06 (MAX-T)=   0.027 
ITERATION 122 : L=  143.5234957407 DL=  2.42e-06 (MAX-T)=   0.035 
ITERATION 123 : L=  143.5234975982 DL=  1.86e-06 (MAX-T)=   0.032 
ITERATION 124 : L=  143.5234993833 DL=  1.79e-06 (MAX-T)=   0.029 
ITERATION 125 : L=  143.5235014271 DL=  2.04e-06 (MAX-T)=   0.035 
ITERATION 126 : L=  143.5235033641 DL=  1.94e-06 (MAX-T)=   0.029 
ITERATION 127 : L=  143.5235057243 DL=  2.36e-06 (MAX-T)=   0.027 
MAXIMUM NO OF ITERATIONS EXCEEDED - LOCALIZATION NOT CONVERGED


--------------------------------------------------------------------------------
                    LOCALIZED MOLECULAR ORBITAL COMPOSITIONS
--------------------------------------------------------------------------------

The Mulliken populations for each LMO on each atom are computed
The LMO`s will be ordered according to atom index and type
  (A) Strongly localized MO`s have populations of >=0.950 on one atom
  (B) Two center bond orbitals have populations of >=0.850 on two atoms
  (C) Other MO`s are considered to be `delocalized`

FOUND  -  12 strongly local MO`s
       -   0 two center bond MO`s
       -   0 significantly delocalized MO`s

Rather strongly localized orbitals:
MO  26:   2Ar -   1.006176
MO  25:   2Ar -   1.006176
MO  24:   2Ar -   1.002132
MO  23:   2Ar -   1.002132
MO  22:   1Ar -   1.002206
MO  21:   1Ar -   1.001866
MO  20:   1Ar -   1.002372
MO  19:   1Ar -   1.002016
MO  18:   0Ar -   1.002495
MO  17:   0Ar -   1.002022
MO  16:   0Ar -   1.001926
MO  15:   0Ar -   1.002017
Localized MO's were stored in: AR3LD_2.8_2.8_3.6.proc0.loc

Localizing the core orbitals
Localization sum:   170.915369173 
------------------------------------------------------------------------------
                           ORCA ORBITAL LOCALIZATION
------------------------------------------------------------------------------

Input orbitals are from                  ... AR3LD_2.8_2.8_3.6.proc0.loc
Output orbitals are to                   ... AR3LD_2.8_2.8_3.6.proc0.loc
Max. number of iterations                ... 128
Localizations seeded randomly            ... on
Convergence tolerance                    ... 2.000e-07
Using relative localization threshhold   ... 1.000e-08
Threshold for strong local MOs           ... 9.500e-01
Threshold for bond MOs                   ... 8.500e-01
Operator                                 ... 0
Orbital range for localization           ... 0 to 14
Localization criterion                   ... FOSTER-BOYS
Doing the dipole integrals     ... o.k.
Entering Jacobi type localization:
Using Cholesky decomposition as initial guess.
Initial value of the localization sum :   170.458873
ITERATION   0 : L=  170.9138645643 DL=  4.55e-01 (MAX-T)=  45.000 
ITERATION   1 : L=  170.9153626786 DL=  1.50e-03 (MAX-T)=   7.060 
ITERATION   2 : L=  170.9153691371 DL=  6.46e-06 (MAX-T)=   0.306 
ITERATION   3 : L=  170.9153691726 DL=  3.56e-08 (MAX-T)=   0.022 
LOCALIZATION SUM CONVERGED


--------------------------------------------------------------------------------
                    LOCALIZED MOLECULAR ORBITAL COMPOSITIONS
--------------------------------------------------------------------------------

The Mulliken populations for each LMO on each atom are computed
The LMO`s will be ordered according to atom index and type
  (A) Strongly localized MO`s have populations of >=0.950 on one atom
  (B) Two center bond orbitals have populations of >=0.850 on two atoms
  (C) Other MO`s are considered to be `delocalized`

FOUND  -  15 strongly local MO`s
       -   0 two center bond MO`s
       -   0 significantly delocalized MO`s

Rather strongly localized orbitals:
MO  14:   2Ar -   1.000094
MO  13:   2Ar -   1.000065
MO  12:   2Ar -   1.000031
MO  11:   2Ar -   1.000001
MO  10:   2Ar -   1.000048
MO   9:   1Ar -   1.000048
MO   8:   1Ar -   1.000049
MO   7:   1Ar -   1.000023
MO   6:   1Ar -   1.000000
MO   5:   1Ar -   1.000017
MO   4:   0Ar -   1.000016
MO   3:   0Ar -   1.000048
MO   2:   0Ar -   1.000037
MO   1:   0Ar -   1.000000
MO   0:   0Ar -   1.000037
Localized MO's were stored in: AR3LD_2.8_2.8_3.6.proc0.loc

Warning: reference  - re-canonicalizations have been set to INT 1 VIRT 1
Warning: internal orbitals are localized - no re-canonicalization of internal orbitals
Warning: UsePNO is turned on - no re-canonicalization of internal and virtual orbitals
Fock densities were made 
Making Fock matrix and reference energy:

--------------------------
CLOSED-SHELL FOCK OPERATOR
--------------------------

Time needed for Fock operator              ...            0.975 sec
Reference energy                           ...  -1580.376546586

--------------
DLPNO SETTINGS (2015 fully linear scaling implementation)
--------------

TCutMKN:           1.000e-03
TCutPAO:           1.000e-03
TCutPNO:           3.330e-07
TCutPNOSingles:    9.990e-09
TCutEN:            9.700e-01
TCutPAOExt:        1.000e-01
TCutPairs:         1.000e-05
TCutPre:           1.000e-07
TCutOSV:           1.000e-06
TCutDOij:          1.000e-05
TCutDO:            1.000e-02
TCutC:             1.000e-04
TCutCPAO:          1.000e-03
TCutCMO:           1.000e-03
TScaleDOMP2PreScr: 2.000e+00
TScaleMKNMP2PreScr:1.000e+01
TScalePNOMP2PreScr:1.000e+00
PAO overlap thresh 1.000e-08
Using PNOs for Singles Fock computation
Use new domains
Use fully linear algorithm

--------------------------
Mulliken population of the LMOs            ... ok
Performing proximity check                 ... No problems found
Calculating differential overlap integrals ... ok

------------------------
PRESCREENING OF HF PAIRS
------------------------

   .... Finished loop over pairs

                  ============================================
                    30 of   78 PAIRS WERE SKIPPED as HF PAIRS
                  ============================================

Total time spent in skipping HF pairs                 ...     0.000 sec
--------------------------
ELECTRON PAIR PRESCREENING
--------------------------

Dipole-based pair screening          .... used

   TCutDOij = 1.000000e-05
   TCutPre  = 1.000000e-07
   .... Finished loop over pairs
Total time spent in the prescreening                  ...     0.000 sec
sum of pair energies estimated for screened out pairs ...       0.000000000000 Eh
Thresholds for map construction and integral transformation for crude MP2:
   TCutMKN                    ...     1.0e-02
   TCutDO                     ...     2.0e-02
   TCutPairs                  ...     1.0e-05
   TCutPNO_CrudeMP2           ...     3.3e-07
   TCutPNOSingles_CrudeMP2    ...     1.0e-08
--------------------------------
LOCAL RI TRANSFORMATION (IAVPAO)
--------------------------------

Orbital window:      15 to 26
Number of PAOs:      81
Basis functions:     81 (33 shells)
Aux. functions:     276 (84 shells)
Use SHARK:           on
Have SHARK:         yes

Processing maps (0.0 sec)
Average map sizes:
   Aux shells -> MOs              12.0
   Aux shells -> PAOs             81.0
   MOs        -> AO shells        33.0
   PAOs       -> AO shells        33.0

Calculating integrals (0.1 sec, 2.050 MB)
Sorting integrals (0.0 sec, 2.047 MB)
Total time for the integral transformation: 0.1 sec
--------------------------------
INITIAL GUESS AND PNO GENERATION
--------------------------------

Populations of internal orbitals onto Fragments:
  15:      1.002    0.000    0.002  assigned to fragment   1
  16:      1.002    0.000    0.002  assigned to fragment   1
  17:      1.002    0.000    0.002  assigned to fragment   1
  18:      1.002    0.000    0.002  assigned to fragment   1
  19:      0.000    1.002    0.002  assigned to fragment   2
  20:      0.000    1.002    0.002  assigned to fragment   2
  21:      0.000    1.002    0.002  assigned to fragment   2
  22:      0.000    1.002    0.002  assigned to fragment   2
  23:      0.000    0.002    1.002  assigned to fragment   3
  24:      0.002    0.000    1.002  assigned to fragment   3
  25:      0.003    0.003    1.006  assigned to fragment   3
  26:      0.003    0.003    1.006  assigned to fragment   3

Summary assignment:
   4 orbitals assigned to fragment   1
   4 orbitals assigned to fragment   2
   4 orbitals assigned to fragment   3

PNO truncation parameters                   .... 
    PAOOverlapThresh   =        1.000e-08

Pair selection                          .... 
  modified with fragment specific keywords
  Pairs will be selected according to these
  intra(inter)fragment cutoffs
  1 <-> 1
    Intrafragment pairs 1 <-> 1 neglected for CCSD
  1 <-> 2
    TCutPairs          =        1.000e-05
    TCutPNO            =        3.330e-07
    TCutMKN            =        1.000e-02
    TCutDO             =        2.000e-02
    TCutPNOSingles     =        9.990e-09
    TCutMP2Pairs       =        1.000e-06
  1 <-> 3
    TCutPairs          =        1.000e-05
    TCutPNO            =        3.330e-07
    TCutMKN            =        1.000e-02
    TCutDO             =        2.000e-02
    TCutPNOSingles     =        9.990e-09
    TCutMP2Pairs       =        1.000e-06
  2 <-> 2
    Intrafragment pairs 2 <-> 2 neglected for CCSD
  2 <-> 3
    TCutPairs          =        1.000e-05
    TCutPNO            =        3.330e-07
    TCutMKN            =        1.000e-02
    TCutDO             =        2.000e-02
    TCutPNOSingles     =        9.990e-09
    TCutMP2Pairs       =        1.000e-06
  3 <-> 3
    Intrafragment pairs 3 <-> 3 neglected for CCSD

Type of local MP2 treatment                 .... semi-local MP2
Strategy for PNO selection                  .... occupation number selection
Pair density normalization                  .... MP2 norm
Spin component scaling                      .... not used

   .... Finished loop over pairs
Making pair pair interaction lists          ... done

                       ===========================
                         48 OF   60 PAIRS ARE KEPT CCSD PAIRS
                          0 OF   60 PAIRS ARE KEPT MP2 PAIRS
                         12 OF   60 PAIRS ARE SKIPPED
                       ===========================

Total time spent in the initial guess                 ...     0.135 sec
SL-MP2 correlation energy (all non-screened pairs)    ...      -0.007611875942 Eh

Initial PNO correlation energy                        ...      -0.007456542722 Eh
sum of pair energies prescreened and skipped MP2 pairs...       0.000000000000 Eh
sum of pair energies of crude MP2 skipped pairs only  ...       0.000000000000 Eh
sum of MP2 pair energies for pairs that were not kept ...       0.000000000000 Eh
sum of PNO error estimates for the kept pairs         ...      -0.000155333221 Eh
                                                          --------------------
sum of all corrections                                         -0.000155333221
Initial total correlation energy                               -0.007611875942
Thresholds for map construction and integral transformation for fine MP2 and CCSD(T) calculation:
   TCutMKN   ...     1.0e-03
   TCutDO    ...     1.0e-02
   TCutPairs ...     1.0e-05
   TCutCMO   ...     1.0e-03
   TCutCPAO  ...     1.0e-03

--------------------------------
LOCAL RI TRANSFORMATION (IAVPAO)
--------------------------------

Orbital window:      15 to 26
Number of PAOs:      81
Basis functions:     81 (33 shells)
Aux. functions:     276 (84 shells)
Use SHARK:           on
Have SHARK:         yes

Processing maps (0.0 sec)
Average map sizes:
   Aux shells -> MOs              12.0
   Aux shells -> PAOs             81.0
   MOs        -> AO shells        33.0
   PAOs       -> AO shells        33.0

Calculating integrals (0.1 sec, 2.050 MB)
Sorting integrals (0.0 sec, 2.047 MB)
Total time for the integral transformation: 0.1 sec
--------------------------------
INITIAL GUESS AND PNO GENERATION
--------------------------------

Populations of internal orbitals onto Fragments:
  15:      1.002    0.000    0.002  assigned to fragment   1
  16:      1.002    0.000    0.002  assigned to fragment   1
  17:      1.002    0.000    0.002  assigned to fragment   1
  18:      1.002    0.000    0.002  assigned to fragment   1
  19:      0.000    1.002    0.002  assigned to fragment   2
  20:      0.000    1.002    0.002  assigned to fragment   2
  21:      0.000    1.002    0.002  assigned to fragment   2
  22:      0.000    1.002    0.002  assigned to fragment   2
  23:      0.000    0.002    1.002  assigned to fragment   3
  24:      0.002    0.000    1.002  assigned to fragment   3
  25:      0.003    0.003    1.006  assigned to fragment   3
  26:      0.003    0.003    1.006  assigned to fragment   3

Summary assignment:
   4 orbitals assigned to fragment   1
   4 orbitals assigned to fragment   2
   4 orbitals assigned to fragment   3

PNO truncation parameters                   .... 
    PAOOverlapThresh   =        1.000e-08

Pair selection                          .... 
  modified with fragment specific keywords
  Pairs will be selected according to these
  intra(inter)fragment cutoffs
  1 <-> 1
    Intrafragment pairs 1 <-> 1 neglected for CCSD
  1 <-> 2
    TCutPairs          =        1.000e-05
    TCutPNO            =        3.330e-07
    TCutMKN            =        1.000e-03
    TCutDO             =        1.000e-02
    TCutPNOSingles     =        9.990e-09
    TCutMP2Pairs       =        1.000e-06
  1 <-> 3
    TCutPairs          =        1.000e-05
    TCutPNO            =        3.330e-07
    TCutMKN            =        1.000e-03
    TCutDO             =        1.000e-02
    TCutPNOSingles     =        9.990e-09
    TCutMP2Pairs       =        1.000e-06
  2 <-> 2
    Intrafragment pairs 2 <-> 2 neglected for CCSD
  2 <-> 3
    TCutPairs          =        1.000e-05
    TCutPNO            =        3.330e-07
    TCutMKN            =        1.000e-03
    TCutDO             =        1.000e-02
    TCutPNOSingles     =        9.990e-09
    TCutMP2Pairs       =        1.000e-06
  3 <-> 3
    Intrafragment pairs 3 <-> 3 neglected for CCSD

Type of local MP2 treatment                 .... semi-local MP2
Strategy for PNO selection                  .... occupation number selection
Pair density normalization                  .... MP2 norm
Spin component scaling                      .... not used

   .... Finished loop over pairs

 PNO Occupation Number Statistics: 
  | Av. % of trace(Dij) retained        ...  98.653287820987
  | sigma^2 in % of trace(Dij) retained ...   2.75e-01
  | Av. % of trace(Di) retained         ...  99.999789001640
  | sigma^2 in % of trace(Di) retained  ...   2.27e-09
 Distributions of % trace(Dij) recovered:
  |   [90.0, 99.0) ...    34 ( 70.8 % of all pairs)
  |   [99.0, 99.9) ...    14 ( 29.2 % of all pairs)
 Distributions of % trace(Di) recovered :
  |       >= 99.9  ...    12 (100.0 % of all I-pairs )

Making pair pair interaction lists          ... done

                       ===========================
                         48 OF   60 PAIRS ARE KEPT
                       ===========================

Total time spent in the initial guess                 ...     0.191 sec
SL-MP2 correlation energy (all non-screened pairs)    ...      -0.007611052020 Eh

Initial PNO correlation energy                        ...      -0.007454816848 Eh
sum of pair energies estimated for screened out pairs ...       0.000000000000 Eh
sum of MP2 pair energies for pairs that were not kept ...       0.000000000000 Eh
sum of PNO error estimates for the kept pairs         ...      -0.000156235172 Eh
                                                          --------------------
sum of all corrections                                         -0.000156235172
Initial total correlation energy                               -0.007611052020
Thresholds for map construction and integral transformation for fine MP2 and CCSD(T) calculation:
   TCutMKN   ...     1.0e-03
   TCutDO    ...     1.0e-02
   TCutPairs ...     1.0e-05
   TCutCMO   ...     1.0e-03
   TCutCPAO  ...     1.0e-03

Time for aux screen maps:            0.000
Time for maps after fine MP2:            0.001
-----------------------------
LOCAL RI TRANSFORMATION (IJV)
-----------------------------

Orbital window:      15 to 26
Basis functions:     81 (33 shells)
Aux. functions:     276 (84 shells)
Use SHARK:           on

Processing maps (0.0 sec)
Average map sizes:
   Aux shells -> MOs(i)           12.0
   Aux shells -> MOs(j)           12.0
   MOs        -> AO shells        33.0

Calculating integrals NOTE: Switching SHARK to General Contraction for MDCI
      If that is not desired please turn off the PGCFlag in the input (%shark PGCFlag 0 end)
(0.5 sec, 0.306 MB)
Sorting integrals (0.0 sec, 0.303 MB)
Total time for the integral transformation: 0.5 sec
--------------------------------
LOCAL RI TRANSFORMATION (VABPAO)
--------------------------------

Number of PAOs:      81
Basis functions:     81 (33 shells)
Aux. functions:     276 (84 shells)
Use SHARK:           on

Processing maps (0.0 sec)
Average map sizes:
   Aux shells -> PAOs             81.0
   PAOs       -> AO shells        33.0

Calculating integrals NOTE: Switching SHARK to General Contraction for MDCI
      If that is not desired please turn off the PGCFlag in the input (%shark PGCFlag 0 end)
(0.5 sec, 13.819 MB)
Finished


-------------------------------------
Pair Pair Term precalculation with     
RI-(ij|mn) and (im|jn) transformation  
ON THE FLY                             
-------------------------------------

   IBatch   1 (of   1)              ... done (    0.734 sec)
Total EXT                           ...           0.734 sec

IAVPA Available = YES
VABPAO Available= YES
IJV Available   = YES
IJK Available   = NO
PNO3i Available = YES
PNO3j Available = YES
PNO4 Available  = YES
---------------------
RI-PNO TRANSFORMATION
---------------------

Total Number of PNOs                   ...   468
Average number of PNOs per pair        ...     9
Maximal number of PNOs per pair        ...    13
   #pairs with  1 -  5 PNOs   :    0
   #pairs with  6 - 10 PNOs   :   22
   #pairs with 11 - 15 PNOs   :   26
   #pairs with 16 - 20 PNOs   :    0
   #pairs with 21 - 25 PNOs   :    0
   #pairs with 26 - 30 PNOs   :    0
   #pairs with 31 - 35 PNOs   :    0
   #pairs with 36 - 40 PNOs   :    0
   #pairs with 41 - 45 PNOs   :    0
   #pairs with 46 - 50 PNOs   :    0

Generation of (ij|ab)[P] integrals            ... on
Generation of (ia|bc)[P],(ja|bc)[P] integrals ... on
Storage of 3 and 4 external integrals         ... on
Generation of ALL (ka|bc)[P] integrals        ... on
Keep RI integrals in memory                   ... off

Ibatch:  1 (of  1)
Starting 2-4 index PNO integral generation ... done

Timings:
Total PNO integral transformation time     ...          0.480 sec
Size of the 3-external file                ...         0 MB
Size of the 4-external file                ...         0 MB
Size of the IKJL file                      ...         0 MB
Size of the all 3-external file            ...         2 MB
Size of the 1-external file                ...         0 MB

Making pair/pair overlap matrices          ... done (    0.050 sec)
Size of the pair overlap file              ... 2 MB
Redoing the guess amplitudes               ... done (    0.000 sec)

-------------------------
FINAL STARTUP INFORMATION
-------------------------

E(0)                                       ...  -1580.376546586
E(SL-MP2)                                  ...     -0.007611052
E(SL-MP2) including corrections            ...     -0.007611052
Initial E(tot)                             ...  -1580.384157638
<T|T>                                      ...      0.002720581
Number of pairs included                   ... 48
Total number of pairs                      ... 78

------------------------------------------------
                  RHF COUPLED CLUSTER ITERATIONS
------------------------------------------------

Number of PNO amplitudes to be optimized   ...         4884
Number of non-PNO amplitudes               ...       139968
Untruncated number of regular amplitudes   ...       227448

Iter       E(tot)           E(Corr)          Delta-E          Residual     Time
  0  -1580.384157272     -0.007454451      0.000156601      0.000979266    0.10
                           *** Turning on DIIS ***
  1  -1580.383565048     -0.006862226      0.000592224      0.000205375    0.10
  2  -1580.383636720     -0.006933898     -0.000071672      0.000051665    0.08
  3  -1580.383640382     -0.006937560     -0.000003662      0.000019813    0.08
  4  -1580.383641707     -0.006938885     -0.000001325      0.000003288    0.08
  5  -1580.383641888     -0.006939066     -0.000000181      0.000000923    0.08
               --- The Coupled-Cluster iterations have converged ---

----------------------
COUPLED CLUSTER ENERGY
----------------------

E(0)                                       ...  -1580.376546586
E(CORR)(strong-pairs)                      ...     -0.006939066
E(CORR)(weak-pairs)                        ...     -0.000156235
E(CORR)(corrected)                         ...     -0.007095301
E(TOT)                                     ...  -1580.383641888
Singles Norm <S|S>**1/2                    ...      0.003474505  
T1 diagnostic                              ...      0.000709230  

------------------
LARGEST AMPLITUDES
------------------
  26-> 28  20-> 28       0.001890
  25-> 28  22-> 28       0.001889
  25-> 28  17-> 28       0.001765
  23-> 27  15-> 30       0.001739
  24-> 27  19-> 30       0.001691
  23-> 32  15-> 30       0.001676
  24-> 32  19-> 30       0.001675
  24-> 29  21-> 29       0.001638
  20-> 27  18-> 27       0.001565
  23-> 27  19-> 27       0.001522
  26-> 28  16-> 28       0.001487
  26-> 32  18-> 28       0.001454
  26-> 28  18-> 28       0.001443
  25-> 32  22-> 28       0.001432
  25-> 27  22-> 27       0.001406
  24-> 27  15-> 27       0.001381


 ===========================================================
         LOCAL ENERGY DECOMPOSITION FOR DLPNO-CC METHODS
 ===========================================================

Maximum Iterations for the Localization .. 600
Tolerance for the Localization          ..  1.00e-06
Number of fragments = 3
Fragment  1:  0
Fragment  2:  1
Fragment  3:  2

Populations of internal orbitals onto Fragments:
   0:      1.000    0.000    0.000  assigned to fragment   1
   1:      1.000    0.000    0.000  assigned to fragment   1
   2:      1.000    0.000    0.000  assigned to fragment   1
   3:      1.000    0.000    0.000  assigned to fragment   1
   4:      1.000    0.000    0.000  assigned to fragment   1
   5:      0.000    1.000    0.000  assigned to fragment   2
   6:      0.000    1.000    0.000  assigned to fragment   2
   7:      0.000    1.000    0.000  assigned to fragment   2
   8:      0.000    1.000    0.000  assigned to fragment   2
   9:      0.000    1.000    0.000  assigned to fragment   2
  10:      0.000    0.000    1.000  assigned to fragment   3
  11:      0.000    0.000    1.000  assigned to fragment   3
  12:      0.000    0.000    1.000  assigned to fragment   3
  13:      0.000    0.000    1.000  assigned to fragment   3
  14:      0.000    0.000    1.000  assigned to fragment   3
  15:      1.002    0.000    0.002  assigned to fragment   1
  16:      1.002    0.000    0.002  assigned to fragment   1
  17:      1.002    0.000    0.002  assigned to fragment   1
  18:      1.002    0.000    0.002  assigned to fragment   1
  19:      0.000    1.002    0.002  assigned to fragment   2
  20:      0.000    1.002    0.002  assigned to fragment   2
  21:      0.000    1.002    0.002  assigned to fragment   2
  22:      0.000    1.002    0.002  assigned to fragment   2
  23:      0.000    0.002    1.002  assigned to fragment   3
  24:      0.002    0.000    1.002  assigned to fragment   3
  25:      0.003    0.003    1.006  assigned to fragment   3
  26:      0.003    0.003    1.006  assigned to fragment   3

Summary assignment:
   9 orbitals assigned to fragment   1
   9 orbitals assigned to fragment   2
   9 orbitals assigned to fragment   3


--------------------------------
CORRELATION ENERGY DECOMPOSITION
--------------------------------


--------------------------------------------------
INTER- vs INTRA-FRAGMENT CORRELATION ENERGIES (Eh)
--------------------------------------------------

                                   Fragment   1            Fragment   2            Fragment   3            
                         ----------------------  ----------------------  ----------------------  
Intra strong pairs               0.000000000000         0.000000000000         0.000000000000  sum=        0.000000000000
Intra weak pairs                 0.000000000000         0.000000000000         0.000000000000  sum=        0.000000000000
Singles contribution            -0.000000000278        -0.000000000290        -0.000000000597  sum=       -0.000000001165
                         ----------------------  ----------------------  ----------------------  
                                -0.000000000278        -0.000000000290        -0.000000000597  sum=       -0.000000001165


Interaction correlation for Fragments   2 and   1:
--------------------------------------------------
Inter strong pairs               -0.000723928678 (   -0.454 kcal/mol)
Inter weak pairs                 -0.000021255066 (   -0.013 kcal/mol)
                          ----------------------
Total interaction                -0.000745183744 (   -0.468 kcal/mol)

Interaction correlation for Fragments   3 and   1:
--------------------------------------------------
Inter strong pairs               -0.003107426624 (   -1.950 kcal/mol)
Inter weak pairs                 -0.000067435076 (   -0.042 kcal/mol)
                          ----------------------
Total interaction                -0.003174861699 (   -1.992 kcal/mol)
Interaction correlation for Fragments   3 and   2:
--------------------------------------------------
Inter strong pairs               -0.003107709473 (   -1.950 kcal/mol)
Inter weak pairs                 -0.000067545031 (   -0.042 kcal/mol)
                          ----------------------
Total interaction                -0.003175254503 (   -1.992 kcal/mol)



Sum of INTRA-fragment correlation energies  =        -0.000000001165
Sum of INTER-fragment correlation energies  =        -0.007095299947
                                              ---------------------
Total correlation energy                    =        -0.007095301111

---------------------------------------------
DECOMPOSITION OF CCSD STRONG PAIRS INTO      
    DOUBLE EXCITATION TYPES (Eh)             
---------------------------------------------

Foster-Boys localization is used for localizing PNOs

Intra fragment contributions: 
INTRA Fragment 1                        0.000000000 
INTRA Fragment 2                        0.000000000 
INTRA Fragment 3                        0.000000000 

Charge transfer contributions: 
Charge Transfer 1 to 2                 -0.000019342 
Charge Transfer 1 to 3                 -0.000337227 
Charge Transfer 2 to 1                 -0.000006722 
Charge Transfer 2 to 3                 -0.000323726 
Charge Transfer 3 to 1                 -0.000278063 
Charge Transfer 3 to 2                 -0.000299909 

Dispersion contributions: 
Dispersion  2,1                        -0.000697865 
Dispersion  3,1                        -0.002492136 
Dispersion  3,2                        -0.002484074 

Singles contributions:                   
Singles energy                         -0.000000001 
 
Delocalized contributions: 
Delocalized correlation                 0.000000000 

#Time for LED analysis ..       0.0 (sec)



--------------------------------------------------------------------------------
                                    TIMINGS
--------------------------------------------------------------------------------


Total execution time                   ...        4.954 sec

Localization of occupied MO's          ...        0.091 sec (  1.8%)
Fock Matrix Formation                  ...        0.975 sec ( 19.7%)
Global overlap, Fock, MKN matrices     ...        0.127 sec (  2.6%)
Differential overlap integrals         ...        0.196 sec (  4.0%)
Organizing maps                        ...        0.002 sec (  0.0%)
RI 3-index integral generations        ...        1.171 sec ( 23.6%)
RI-PNO integral transformation         ...        1.271 sec ( 25.6%)
Initial Guess                          ...        0.336 sec (  6.8%)
DIIS Solver                            ...        0.004 sec (  0.1%)
State Vector Update                    ...        0.000 sec (  0.0%)
Sigma-vector construction              ...        0.502 sec ( 10.1%)
  <D|H|D>(0-ext)                       ...        0.063 sec ( 12.5% of sigma)
  <D|H|D>(2-ext)                       ...        0.126 sec ( 25.1% of sigma)
  <D|H|D>(4-ext)                       ...        0.009 sec (  1.9% of sigma)
  <D|H|D>(4-ext-corr)                  ...        0.032 sec (  6.5% of sigma)
  CCSD doubles correction              ...        0.012 sec (  2.3% of sigma)
  <S|H|S>                              ...        0.031 sec (  6.2% of sigma)
  <S|H|D>(1-ext)                       ...        0.028 sec (  5.6% of sigma)
  <D|H|S>(1-ext)                       ...        0.001 sec (  0.2% of sigma)
  <S|H|D>(3-ext)                       ...        0.004 sec (  0.9% of sigma)
  Fock-dressing                        ...        0.119 sec ( 23.7% of sigma)
  Singles amplitudes                   ...        0.005 sec (  1.1% of sigma)
  (ik|jl)-dressing                     ...        0.033 sec (  6.6% of sigma)
  (ij|ab),(ia|jb)-dressing             ...        0.033 sec (  6.5% of sigma)
Local Energy Decomposition             ...        0.023 sec (  0.5% of ALL)


Maximum memory used throughout the entire MDCI-calculation: 126.8 MB
----------------------------   ----------------
Inter-fragment dispersion       -0.005830311
----------------------------   ----------------


-------------------------   --------------------
FINAL SINGLE POINT ENERGY     -1580.382376896998 
-------------------------   --------------------


------------------------------------------------------------------------------
                              ORCA PROPERTY CALCULATIONS
------------------------------------------------------------------------------

GBWName                                 ... AR3LD_2.8_2.8_3.6.gbw
Number of atoms                         ...      3
Number of basis functions               ...    150
Max core memory                         ...   1024 MB

Electric properties:
Dipole moment                           ... YES
Quadrupole moment                       ...  NO
Static polarizability (Dipole/Dipole)   ...  NO
Static polarizability (Dipole/Quad.)    ...  NO
Static polarizability (Quad./Quad.)     ...  NO
Static polarizability (Velocity)        ...  NO

Atomic electric properties:
Dipole moment                           ...  NO
Quadrupole moment                       ...  NO
Static polarizability                   ...  NO

Choice of electric origin               ... Center of mass
Position of electric origin             ...     3.401507     1.351004     0.000000

General magnetic properties:
Magnetizability                         ...  NO

EPR properties:
g-Tensor (aka g-matrix)                 ...  NO
Zero-Field splitting spin-orbit         ...  NO
Zero-field splitting spin-spin          ...  NO
Hyperfine couplings                     ...  NO (   0 nuclei)
Quadrupole couplings                    ...  NO (   0 nuclei)
Contact density                         ...  NO (   0 nuclei)

NMR properties:
Chemical shifts                         ...  NO (   0 nuclei)
Spin-rotation constants                 ...  NO (   0 nuclei)
Spin-spin couplings                     ...  NO (   0 nuclei,    0 pairs)

Choice of magnetic origin               ... GIAO
Position of magnetic origin             ...     0.000000     0.000000     0.000000

Properties with geometric perturbations:
SCF Hessian                             ...  NO
IR spectrum                             ...  NO
VCD spectrum                            ...  NO
X-ray spectroscopy properties:
SCF XES/XAS/RIXS spectra                ...  NO


-------------
DIPOLE MOMENT
-------------

Method             : SCF
Type of density    : Electron Density
Multiplicity       :   1
Irrep              :   0
Energy             : -1580.3765465864130420 Eh
Relativity type    : 
Basis              : AO
                                X                 Y                 Z
Electronic contribution:     -0.000000000       0.000328072       0.000000000
Nuclear contribution   :      0.000000000       0.000000000       0.000000000
                        -----------------------------------------
Total Dipole Moment    :     -0.000000000       0.000328072       0.000000000
                        -----------------------------------------
Magnitude (a.u.)       :      0.000328072
Magnitude (Debye)      :      0.000833892



--------------------
Rotational spectrum 
--------------------
 
Rotational constants in cm-1:             0.137605             0.065122             0.044203 
Rotational constants in MHz :          4125.304306          1952.304507          1325.167584 

Dipole components along the rotational axes: 
x,y,z [a.u.] :    -0.000000     0.000328     0.000000 
x,y,z [Debye]:    -0.000000     0.000834     0.000000 

 

Dipole moment calculation done in   0.0 sec 

Maximum memory used throughout the entire PROP-calculation: 6.8 MB

--------------------------------
SUGGESTED CITATIONS FOR THIS RUN
--------------------------------

Below you find a list of papers that are relevant to this ORCA run
We neither can nor want to force you to cite these papers, but we appreciate if you do
You receive ORCA, which is the product of decades of hard work by many enthusiastic individuals, for free
The only thing we kindly ask in return is that you cite our papers,
We deeply appreciate it, if you show your appreciation for ORCA by not just citing the generic ORCA reference.

Please note that relegating all ORCA citations to the supporting information does *not* help us.
SI sections are not indexed - citations you put there will not count into any citation statistics
But we need these citations in order to attract the funding resources that allow us to do what we are doing

Therefore, if you are a happy ORCA user, please consider citing a few of the papers listed below in the main body of your paper

In addition to the list printed below, the program has created the file AR3LD_2.8_2.8_3.6.bibtex that contains the list in bibtex format
You can import this file easily into all common literature databanks and citation aid programs


List of essential papers. We consider these as the minimum necessary citations

  1. Neese,F.
     Software update: the ORCA program system, version 5.0
     WIRES Comput. Molec. Sci., 2022 12(1)e1606
     doi.org/10.1002/wcms.1606

List of papers to cite with high priority. The work reported in these papers was absolutely
necessary for this run to complete.
Our perspective: the developers of density functionals and basis sets usually get cited in chemistry papers
Good! But without the algorithms to do something with them, the functionals or basis sets would not do anything.
Hence, in our opinion, the algorithm design and method developments papers are equally worthy of getting cited

  1. Neese,F.; Hansen,A.; Liakos,D.G.
     Efficient and accurate approximations to the local coupled cluster singles doubles method using a truncated pair natural orbital basis
     J. Chem. Phys., 2009 131 064103
     doi.org/10.1063/1.3173827
  2. Neese,F.; Wennmohs,F.; Hansen,A.
     Efficient and accurate local approximations to coupled-electron pair approaches: An attempt to revive the pair natural orbital method
     J. Chem. Phys., 2009 130 114108
     doi.org/10.1063/1.3086717
  3. Riplinger,C.; Neese,F.
     An efficient and near linear scaling pair natural orbital based local coupled cluster method
     J. Chem. Phys., 2013 138(3)Art. No. 034106
     doi.org/10.1063/1.4773581
  4. Datta,D.; Kossmann,S.; Neese,F.
     Analytic energy derivatives for the calculation of the first-order molecular properties using the domain-based local pair-natural orbital coupled-cluster theory
     J. Chem. Phys., 2016 145 
     doi.org/10.1063/1.4962369
  5. Riplinger,C.; Pinski,P.; Becker,U.; Valeev,E.F.; Neese,F.
     Sparse maps-A systematic infrastructure for reduced-scaling electronic structure methods. II. Linear scaling domain based pair natural orbital coupled cluster theory
     J. Chem. Phys., 2016 144 
     doi.org/10.1063/1.4939030
  6. Schneider,W.B.; Bistoni,G.; Sparta,M.; Saitow,M.; Riplinger,C.; Auer,A.A.; Neese,F.
     Decomposition of Intermolecular Interaction Energies within the Local Pair Natural Orbital Coupled Cluster Framework
     J. Theo. Comp. Chem., 2016 12 4778-4792
     doi.org/10.1021/acs.jctc.6b00523
  7. Bistoni,G.; Riplinger,C.; Minenkov,Y.; Cavallo,L.; Auer,A.A.; Neese,F.
     Treating Subvalence Correlation Effects in Domain Based Pair Natural Orbital Coupled Cluster Calculations: An Out-of-the-Box Approach
     J. Theo. Comp. Chem., 2017 13 3220-3227
     doi.org/10.1021/acs.jctc.7b00352
  8. Altun,A.; Neese,F.; Bistoni,G.
     HFLD: A Nonempirical London Dispersion-Corrected Hartree-Fock Method for the Quantification and Analysis of Noncovalent Interaction Energies of Large Molecular Systems
     J. Chem. Theory Comput., 2019 15 5894-5907
     doi.org/10.1021/acs.jctc.9b00425
  9. Neese,F.
     The SHARK Integral Generation and Digestion System
     J. Comp. Chem., 2022  1-16
     doi.org/10.1002/jcc.26942
 10. Altun,A.; Neese,F.; Bistoni,G.
     Open-Shell Variant of the London Dispersion-Corrected Hartree–Fock Method (HFLD) for the Quantification and Analysis of Noncovalent Interaction Energies
     J. Chem. Theory Comput., 2022 XX XXXX-XXXX
     doi.org/10.1021/acs.jctc.1c01295

List of suggested additional citations. These are papers that are important in the 'surrounding' of 
of this run, or papers that preceded the highly important papers. If you like your results we are grateful for a citation.

  1. Neese,F.
     The ORCA program system
     WIRES Comput. Molec. Sci., 2012 2(1)73-78
     doi.org/10.1002/wcms.81
  2. Neese,F.
     Software update: the ORCA program system, version 4.0
     WIRES Comput. Molec. Sci., 2018 8(1)1-6
     doi.org/10.1002/wcms.1327
  3. Neese,F.; Wennmohs,F.; Becker,U.; Riplinger,C.
     The ORCA quantum chemistry program package
     J. Chem. Phys., 2020 152 Art. No. L224108
     doi.org/10.1063/5.0004608
  4. Bistoni,G.
     Finding chemical concepts in the Hilbert space: Coupled cluster analyses of noncovalent interactions
     WIRES Comput. Molec. Sci., 2020 10(3)e1442
     doi.org/10.1002/wcms.1442

List of optional additional citations

  1. Neese,F.
     Approximate second-order SCF convergence for spin unrestricted wavefunctions
     Chem. Phys. Lett., 2000 325(1-3)93-98
     doi.org/10.1016/s0009-2614(00)00662-x

Timings for individual modules:

Sum of individual times          ...       12.853 sec (=   0.214 min)
Startup calculation              ...        1.665 sec (=   0.028 min)  13.0 %
SCF iterations                   ...        6.063 sec (=   0.101 min)  47.2 %
Property integrals               ...        0.063 sec (=   0.001 min)   0.5 %
Property calculations            ...        0.077 sec (=   0.001 min)   0.6 %
MDCI module                      ...        4.985 sec (=   0.083 min)  38.8 %
                             ****ORCA TERMINATED NORMALLY****
TOTAL RUN TIME: 0 days 0 hours 0 minutes 12 seconds 925 msec
