
                                 *****************
                                 * O   R   C   A *
                                 *****************

                                            #,                                       
                                            ###                                      
                                            ####                                     
                                            #####                                    
                                            ######                                   
                                           ########,                                 
                                     ,,################,,,,,                         
                               ,,#################################,,                 
                          ,,##########################################,,             
                       ,#########################################, ''#####,          
                    ,#############################################,,   '####,        
                  ,##################################################,,,,####,       
                ,###########''''           ''''###############################       
              ,#####''   ,,,,##########,,,,          '''####'''          '####       
            ,##' ,,,,###########################,,,                        '##       
           ' ,,###''''                  '''############,,,                           
         ,,##''                                '''############,,,,        ,,,,,,###''
      ,#''                                            '''#######################'''  
     '                                                          ''''####''''         
             ,#######,   #######,   ,#######,      ##                                
            ,#'     '#,  ##    ##  ,#'     '#,    #''#        ,####,   ,####,        
            ##       ##  ##   ,#'  ##            #'  '#       #'       #'  '#        
            ##       ##  #######   ##           ,######,      #####,   #    #        
            '#,     ,#'  ##    ##  '#,     ,#' ,#      #,     #,   #   #,  ,#        
             '#######'   ##     ##  '#######'  #'      '#     '####' # '####'        



                #########################################################
                #                        -***-                          #
                #          Department of theory and spectroscopy        #
                #                                                       #
                #                      Frank Neese                      #
                #                                                       #
                #     Directorship, Architecture, Infrastructure        #
                #                    SHARK, DRIVERS                     #
                #        Core code/Algorithms in most modules           #
                #                                                       #
                #        Max Planck Institute fuer Kohlenforschung      #
                #                Kaiser Wilhelm Platz 1                 #
                #                 D-45470 Muelheim/Ruhr                 #
                #                      Germany                          #
                #                                                       #
                #                  All rights reserved                  #
                #                        -***-                          #
                #########################################################


                         Program Version 6.0.0  -   RELEASE  -


 With contributions from (in alphabetic order):
   Daniel Aravena         : Magnetic Suceptibility
   Michael Atanasov       : Ab Initio Ligand Field Theory (pilot matlab implementation)
   Alexander A. Auer      : GIAO ZORA, VPT2 properties, NMR spectrum
   Ute Becker             : All parallelization in ORCA, NUMFREQ, NUMCALC
   Giovanni Bistoni       : ED, misc. LED, open-shell LED, HFLD
   Martin Brehm           : Molecular dynamics
   Dmytro Bykov           : pre 5.0 version of the SCF Hessian
   Marcos Casanova-Páez   : Triplet and SCS-CIS(D). UHF-(DLPNO)-IP/EA/STEOM-CCSD. UHF-CVS-IP/STEOM-CCSD
   Vijay G. Chilkuri      : MRCI spin determinant printing, contributions to CSF-ICE
   Pauline Colinet        : FMM embedding
   Dipayan Datta          : RHF DLPNO-CCSD density
   Achintya Kumar Dutta   : EOM-CC, STEOM-CC
   Nicolas Foglia         : Exact transition moments, OPA infrastructure, MCD improvements
   Dmitry Ganyushin       : Spin-Orbit,Spin-Spin,Magnetic field MRCI
   Miquel Garcia          : C-PCM and meta-GGA Hessian, CCSD/C-PCM, Gaussian charge scheme
   Tiago L. C. Gouveia    : GS-ROHF, GS-ROCIS
   Yang Guo               : DLPNO-NEVPT2, F12-NEVPT2, CIM, IAO-localization
   Andreas Hansen         : Spin unrestricted coupled pair/coupled cluster methods
   Ingolf Harden          : AUTO-CI MPn and infrastructure 
   Benjamin Helmich-Paris : MC-RPA, TRAH-(SCF,CASSCF), AVAS, COSX integrals, SCF dyn. polar.
   Lee Huntington         : MR-EOM, pCC
   Robert Izsak           : Overlap fitted RIJCOSX, COSX-SCS-MP3, EOM
   Riya Kayal             : Wick's Theorem for AUTO-CI, AUTO-CI UHF-CCSDT
   Emily Kempfer          : AUTO-CI, RHF CISDT and CCSDT
   Christian Kollmar      : KDIIS, OOCD, Brueckner-CCSD(T), CCSD density, CASPT2, CASPT2-K, improved NEVPT2
   Axel Koslowski         : Symmetry handling
   Simone Kossmann        : Meta GGA functionals, TD-DFT gradient, OOMP2, (MP2 Hessian; deprecated post 5.0)
   Lucas Lang             : DCDCAS
   Marvin Lechner         : AUTO-CI (C++ implementation), FIC-MRCC
   Spencer Leger          : CASSCF response
   Dagmar Lenk            : GEPOL surface, SMD, ORCA-2-JSON
   Dimitrios Liakos       : Extrapolation schemes; Compound Job, initial MDCI parallelization
   Dimitrios Manganas     : Further ROCIS development; embedding schemes. LFT, Crystal Embedding
   Dimitrios Pantazis     : SARC Basis sets
   Anastasios Papadopoulos: AUTO-CI, single reference methods and gradients
   Taras Petrenko         : pre 6.0 DFT Hessian and TD-DFT gradient, (ASA, deprecated), ECA, 1-Electron XAS/XES, NRVS
   Peter Pinski           : DLPNO-MP2, DLPNO-MP2 Gradient
   Christoph Reimann      : Effective Core Potentials
   Marius Retegan         : Local ZFS, SOC
   Christoph Riplinger    : Optimizer, TS searches, QM/MM, DLPNO-CCSD(T), (RO)-DLPNO pert. Triples
   Michael Roemelt        : Original ROCIS implementation
   Masaaki Saitow         : Open-shell DLPNO-CCSD energy and density
   Barbara Sandhoefer     : DKH picture change effects
   Kantharuban Sivalingam : CASSCF convergence/infrastructure, NEVPT2 and variants, FIC-MRCI
   Bernardo de Souza      : ESD, SOC TD-DFT
   Georgi Stoychev        : AutoAux, RI-MP2 NMR, DLPNO-MP2 response, X2C
   Van Anh Tran           : RI-MP2 g-tensors
   Willem Van den Heuvel  : Paramagnetic NMR
   Zikuan Wang            : NOTCH, Electric field optimization 
   Frank Wennmohs         : Technical directorship and infrastructure
   Hang Xu                : AUTO-CI-Response properties 


 We gratefully acknowledge several colleagues who have allowed us to
 interface, adapt or use parts of their codes:
   Stefan Grimme, W. Hujo, H. Kruse, P. Pracht,  : VdW corrections, initial TS optimization,
                  C. Bannwarth, S. Ehlert,         DFT functionals, gCP, sTDA/sTD-DF
                  L. Wittmann, M. Mueller
   Ed Valeev, F. Pavosevic, A. Kumar             : LibInt (2-el integral package), F12 methods
   Garnet Chan, S. Sharma, J. Yang, R. Olivares  : DMRG
   Ulf Ekstrom                                   : XCFun DFT Library
   Mihaly Kallay                                 : mrcc  (arbitrary order and MRCC methods)
   Frank Weinhold                                : gennbo (NPA and NBO analysis)
   Simon Mueller                                 : openCOSMO-RS
   Christopher J. Cramer and Donald G. Truhlar   : smd solvation model
   Lars Goerigk                                  : TD-DFT with DH, B97 family of functionals
   V. Asgeirsson, H. Jonsson                     : NEB implementation
   FAccTs GmbH                                   : IRC, NEB, NEB-TS, DLPNO-Multilevel, CI-OPT
                                                   MM, QMMM, 2- and 3-layer-ONIOM, Crystal-QMMM,
                                                   LR-CPCM, SF, NACMEs, symmetry and pop. for TD-DFT,
                                                   nearIR, NL-DFT gradient (VV10), updates on ESD,
                                                   ML-optimized integration grids, MBIS, APM,
                                                   GOAT, DOCKER, SOLVATOR, interface openCOSMO-RS
   S Lehtola, MJT Oliveira, MAL Marques          : LibXC Library
   Liviu Ungur et al                             : ANISO software


 Your calculation uses the libint2 library for the computation of 2-el integrals
 For citations please refer to: http://libint.valeyev.net

 Your ORCA version has been built with support for libXC version: 6.2.2
 For citations please refer to: https://libxc.gitlab.io

 This ORCA versions uses:
   CBLAS   interface :  Fast vector & matrix operations
   LAPACKE interface :  Fast linear algebra routines
   SCALAPACK package :  Parallel linear algebra routines
   Shared memory     :  Shared parallel matrices
   BLAS/LAPACK       :  OpenBLAS 0.3.27  USE64BITINT DYNAMIC_ARCH NO_AFFINITY Haswell SINGLE_THREADED
        Core in use  :  Haswell
   Copyright (c) 2011-2014, The OpenBLAS Project


================================================================================

----- Orbital basis set information -----
Your calculation utilizes the basis: aug-cc-pVDZ 
    H, B-Ne : Obtained from the ccRepo (grant-hill.group.shef.ac.uk/ccrepo) Feb. 2017
              R. A. Kendall, T. H. Dunning, Jr., R. J. Harrison, J. Chem. Phys. 96, 6796 (1992)
         He : Obtained from the ccRepo (grant-hill.group.shef.ac.uk/ccrepo) Feb. 2017
              D. E. Woon, T. H. Dunning, Jr., J. Chem. Phys. 100, 2975 (1994)
  Li-Be, Na : Obtained from the ccRepo (grant-hill.group.shef.ac.uk/ccrepo) Feb. 2017
              B. P. Prascher, D. E. Woon, K. A. Peterson, T. H. Dunning, Jr., A. K. Wilson, Theor. Chem. Acc. 128, 69 (2011)
         Mg : Obtained from the Peterson Research Group Website (tyr0.chem.wsu.edu/~kipeters) Feb. 2017
              B. P. Prascher, D. E. Woon, K. A. Peterson, T. H. Dunning, Jr., A. K. Wilson, Theor. Chem. Acc. 128, 69 (2011)
      Al-Ar : Obtained from the ccRepo (grant-hill.group.shef.ac.uk/ccrepo) Feb. 2017
              D. E. Woon, T. H. Dunning, Jr., J. Chem. Phys. 98, 1358 (1993)
      Sc-Zn : Obtained from the ccRepo (grant-hill.group.shef.ac.uk/ccrepo) Feb. 2017
              N. B. Balabanov, K. A. Peterson, J. Chem. Phys. 123, 064107 (2005)
              N. B. Balabanov, K. A. Peterson, J. Chem. Phys. 125, 074110 (2006)
      Ga-Kr : Obtained from the ccRepo (grant-hill.group.shef.ac.uk/ccrepo) Feb. 2017
              A. K. Wilson, D. E. Woon, K. A. Peterson, T. H. Dunning, Jr., J. Chem. Phys. 110, 7667 (1999)

----- AuxC basis set information -----
Your calculation utilizes the auxiliary basis: aug-cc-pVDZ/C 
  H-He, B, Ne, Al-Ar, Ga-Ge, Se-Br : Obtained from the EMSL Basis Set Exchange (bse.pnl.gov) Feb. 2017
                                     F. Weigend, A. Kohn, C. Hattig, J. Chem. Phys. 116, 3175 (2002)
                            Be, Mg : Obtained from the TURBOMOLE 7.0 basis set library
                                     C. Haettig, Phys. Chem. Chem. Phys. 7, 59 (2005)
                               C-F : Obtained from the EMSL Basis Set Exchange (bse.pnl.gov) Feb. 2017
                                     C. Haettig, Phys. Chem. Chem. Phys. 7, 59 (2005)
                                     F. Weigend, A. Kohn, C. Hattig, J. Chem. Phys. 116, 3175 (2002)
                                As : Obtained from the EMSL Basis Set Exchange (bse.pnl.gov) Feb. 2017
                                     C. Haettig, G. Schmitz, J. Kossmann, Phys. Chem. Chem. Phys. 14, 6549 (2012)
                                Kr : Obtained from the TURBOMOLE 7.0 basis set library
                                     F. Weigend, A. Kohn, C. Hattig, J. Chem. Phys. 116, 3175 (2002)
                                     S function revised in Sep. 2009

================================================================================
                                        WARNINGS
                       Please study these warnings very carefully!
================================================================================


WARNING: Post HF methods need fully converged wavefunctions
  ===> : Setting SCFConvForced true
         You can overwrite this default with %scf ConvForced false 


================================================================================
                                       INPUT FILE
================================================================================
NAME = AR3LD_4.0_3.2_2.8.inp
|  1> # MP2 scan of the potential energy curve for Ar...Ar
|  2>                 ! HFLD aug-cc-pvdz aug-cc-pvdz/C verytightscf
|  3>                 *xyz 0 1
|  4>                 Ar(1)	0    0	0.00000000000000
|  5>                 Ar(2)	2.8	0    0.00000000000000
|  6>                 Ar(3)	0.3714285714285716	3.178370780183856    0.00000000000000
|  7>                 **                         ****END OF INPUT****
================================================================================

                       ****************************
                       * Single Point Calculation *
                       ****************************

---------------------------------
CARTESIAN COORDINATES (ANGSTROEM)
---------------------------------
  Ar     0.000000    0.000000    0.000000
  Ar     2.800000    0.000000    0.000000
  Ar     0.371429    3.178371    0.000000

----------------------------
CARTESIAN COORDINATES (A.U.)
----------------------------
  NO LB      ZA    FRAG     MASS         X           Y           Z
   0 Ar   18.0000    1    39.948    0.000000    0.000000    0.000000
   1 Ar   18.0000    2    39.948    5.291233    0.000000    0.000000
   2 Ar   18.0000    3    39.948    0.701898    6.006250    0.000000

----------------------------------------------
CARTESIAN COORDINATES OF FRAGMENTS (ANGSTROEM)
----------------------------------------------

 FRAGMENT 1 
  Ar    0.000000    0.000000    0.000000

 FRAGMENT 2 
  Ar    2.800000    0.000000    0.000000

 FRAGMENT 3 
  Ar    0.371429    3.178371    0.000000

--------------------------------
INTERNAL COORDINATES (ANGSTROEM)
--------------------------------
 Ar     0   0   0     0.000000000000     0.00000000     0.00000000
 Ar     1   0   0     2.800000000000     0.00000000     0.00000000
 Ar     1   2   0     3.200000000000    83.33457274     0.00000000

---------------------------
INTERNAL COORDINATES (A.U.)
---------------------------
 Ar     0   0   0     0.000000000000     0.00000000     0.00000000
 Ar     1   0   0     5.291233174980     0.00000000     0.00000000
 Ar     1   2   0     6.047123628548    83.33457274     0.00000000

---------------------
BASIS SET INFORMATION
---------------------
There are 1 groups of distinct atoms

 Group   1 Type Ar  : 35s16p2d contracted to 5s4p2d pattern {11111111/7711/11}

Atom   0Ar   basis set group =>   1
Atom   1Ar   basis set group =>   1
Atom   2Ar   basis set group =>   1
---------------------------------
AUXILIARY/C BASIS SET INFORMATION
---------------------------------
There are 1 groups of distinct atoms

 Group   1 Type Ar  : 10s8p6d4f contracted to 10s8p6d4f pattern {1111111111/11111111/111111/1111}

Atom   0Ar   basis set group =>   1
Atom   1Ar   basis set group =>   1
Atom   2Ar   basis set group =>   1
------------------------------------------------------------------------------
                             ORCA STARTUP CALCULATIONS
------------------------------------------------------------------------------
------------------------------------------------------------------------------
                   ___                                                        
                  /   \      - P O W E R E D   B Y -                         
                 /     \                                                     
                 |  |  |   _    _      __       _____    __    __             
                 |  |  |  | |  | |    /  \     |  _  \  |  |  /  |          
                  \  \/   | |  | |   /    \    | | | |  |  | /  /          
                 / \  \   | |__| |  /  /\  \   | |_| |  |  |/  /          
                |  |  |   |  __  | /  /__\  \  |    /   |      \           
                |  |  |   | |  | | |   __   |  |    \   |  |\   \          
                \     /   | |  | | |  |  |  |  | |\  \  |  | \   \       
                 \___/    |_|  |_| |__|  |__|  |_| \__\ |__|  \__/        
                                                                              
                      - O R C A' S   B I G   F R I E N D -                    
                                      &                                       
                       - I N T E G R A L  F E E D E R -                       
                                                                              
 v1 FN, 2020, v2 2021, v3 2022-2024                                           
------------------------------------------------------------------------------


----------------------
SHARK INTEGRAL PACKAGE
----------------------

Number of atoms                             ...      3
Number of basis functions                   ...    150
Number of shells                            ...     72
Maximum angular momentum                    ...      2
Integral batch strategy                     ... SHARK/LIBINT Hybrid
RI-J (if used) integral strategy            ... SPLIT-RIJ (Revised 2003 algorithm where possible)
Printlevel                                  ...      1
Contraction scheme used                     ... PARTIAL GENERAL contraction
Prescreening option                         ... SCHWARTZ
   Thresh                                   ... 1.000e-12
   Tcut                                     ... 1.000e-14
   Tpresel                                  ... 1.000e-14 
Coulomb Range Separation                    ... NOT USED
Exchange Range Separation                   ... NOT USED
Multipole approximations                    ... NOT USED
Finite Nucleus Model                        ... NOT USED
CABS basis                                  ... NOT available
Auxiliary Coulomb fitting basis             ... NOT available
Auxiliary J/K fitting basis                 ... NOT available
Auxiliary Correlation fitting basis         ... AVAILABLE
   # of basis functions in Aux-C            ...    276
   # of shells in Aux-C                     ...     84
   Maximum angular momentum in Aux-C        ...      3
Auxiliary 'external' fitting basis          ... NOT available

Checking pre-screening integrals            ... done (  0.0 sec) Dimension = 72
Save PGC pre-screening integrals            ... done (  0.0 sec) Dimension = 72
Calculate PGC overlap integrals             ... done (  0.1 sec) Dimension = 33
Calculating pre-screening integrals (ORCA)  ... done (  0.3 sec) Dimension = 33
Check shell pair data                       ... done (  0.0 sec)
Shell pair information
Shell pair cut-off parameter TPreSel        ...   1.0e-14
Total number of shell pairs                 ...      2628
Shell pairs after pre-screening             ...      1796
Total number of primitive shell pairs       ...      2628
Primitive shell pairs kept                  ...      1796
          la=0 lb=0:    462 shell pairs
          la=1 lb=0:    673 shell pairs
          la=1 lb=1:    270 shell pairs
          la=2 lb=0:    216 shell pairs
          la=2 lb=1:    154 shell pairs
          la=2 lb=2:     21 shell pairs

Calculating one electron integrals          ... done (  0.0 sec)
Calculating RI/C V-Matrix + Cholesky decomp.... done (  0.0 sec)
Calculating Nuclear repulsion               ... done (  0.0 sec) ENN=    157.675908887389 Eh

Diagonalization of the overlap matrix:
Smallest eigenvalue                        ... 1.589e-02
Time for diagonalization                   ...    0.001 sec
Threshold for overlap eigenvalues          ... 1.000e-07
Number of eigenvalues below threshold      ... 0
Time for construction of square roots      ...    0.000 sec
Total time needed                          ...    0.002 sec

-------------------
DFT GRID GENERATION
-------------------

General Integration Accuracy     IntAcc      ... 4.388
Radial Grid Type                 RadialGrid  ... OptM3 with GC (2021)
Angular Grid (max. ang.)         AngularGrid ... 4 (Lebedev-302)
Angular grid pruning method      GridPruning ... 4 (adaptive)
Weight generation scheme         WeightScheme... mBecke (2022)
Basis function cutoff            BFCut       ... 1.0000e-12
Integration weight cutoff        WCut        ... 1.0000e-14
Partially contracted basis set               ... off
Rotationally invariant grid construction     ... off
Angular grids for H and He will be reduced by one unit

Total number of grid points                  ...    22067
Total number of batches                      ...      346
Average number of points per batch           ...       63
Average number of grid points per atom       ...     7356

---------------------
SHARK GRID GENERATION
---------------------

General Integration Accuracy     IntAcc      ... 4.388
Radial Grid Type                 RadialGrid  ... OptM3 with GC (2021)
Angular Grid (max. ang.)         AngularGrid ... 4 (Lebedev-302)
Angular grid pruning method      GridPruning ... 4 (adaptive)
Weight generation scheme         WeightScheme... mBecke (2022)
Basis function cutoff            BFCut       ... 1.0000e-12
Integration weight cutoff        WCut        ... 1.0000e-14
Partially contracted basis set               ... off
Rotationally invariant grid construction     ... off
Angular grids for H and He will be reduced by one unit
Core-polarized basis detected: some atoms will have their core
                               angular grid increased.
Steep s-basis detected: some atoms will have their radial
                        grid points doubled.

Total number of grid points                  ...    57987
Total number of batches                      ...      907
Average number of points per batch           ...       63
Average number of grid points per atom       ...    19329
Initializing property integral containers    ... done (  0.0 sec)

SHARK setup successfully completed in   1.8 seconds

Maximum memory used throughout the entire STARTUP-calculation: 27.5 MB
-------------------------------------------------------------------------------
                                 ORCA GUESS
                   Start orbitals & Density for SCF / CASSCF
-------------------------------------------------------------------------------

------------
SCF SETTINGS
------------
Hamiltonian:
 Ab initio Hamiltonian  Method          .... Hartree-Fock(GTOs)


General Settings:
 Integral files         IntName         .... AR3LD_4.0_3.2_2.8
 Hartree-Fock type      HFTyp           .... RHF
 Total Charge           Charge          ....    0
 Multiplicity           Mult            ....    1
 Number of Electrons    NEL             ....   54
 Basis Dimension        Dim             ....   81
 Nuclear Repulsion      ENuc            ....    157.6759088874 Eh

Convergence Acceleration:
 AO-DIIS                CNVDIIS         .... on
   Start iteration      DIISMaxIt       ....    12
   Startup error        DIISStart       ....  0.200000
   # of expansion vecs  DIISMaxEq       ....     5
   Bias factor          DIISBfac        ....   1.050
   Max. coefficient     DIISMaxC        ....  10.000
 MO-DIIS                CNVKDIIS        .... off
 Trust-Rad. Augm. Hess. CNVTRAH         .... auto
   Auto Start mean grad. ratio tolernc. ....  1.125000
   Auto Start start iteration           ....    50
   Auto Start num. interpolation iter.  ....    10
   Max. Number of Micro iterations      ....    24
   Max. Number of Macro iterations      .... Maxiter - #DIIS iter
   Number of Davidson start vectors     ....     2
   Converg. threshold    (grad. norm)   ....   2.000e-06
   Grad. Scal. Fac. for Micro threshold ....   0.100
   Minimum threshold for Micro iter.    ....   1.000e-02
   NR start threshold (gradient norm)   ....   1.000e-04
   Initial trust radius                 ....   0.400
   Minimum AH scaling param. (alpha)    ....   1.000
   Maximum AH scaling param. (alpha)    .... 1000.000
   Quad. conv. algorithm                .... NR
   White noise on init. David. guess    .... on
   Maximum white noise                  ....   0.010
   Pseudo random numbers                .... off
   Inactive MOs                         .... canonical
   Orbital update algorithm             .... Taylor
   Preconditioner                       .... Diag
   Full preconditioner red. dimension   ....   250
 SOSCF                  CNVSOSCF        .... on
   Start iteration      SOSCFMaxIt      ....   150
   Startup grad/error   SOSCFStart      ....  0.003300
   Hessian update       SOSCFHessUp     .... L-BFGS
 Level Shifting         CNVShift        .... on
   Level shift para.    LevelShift      ....    0.2500
   Turn off err/grad.   ShiftErr        ....    0.0010
 Zerner damping         CNVZerner       .... off
 Static damping         CNVDamp         .... on
   Fraction old density DampFac         ....    0.7000
   Max. Damping (<1)    DampMax         ....    0.9800
   Min. Damping (>=0)   DampMin         ....    0.0000
   Turn off err/grad.   DampErr         ....    0.1000

SCF Procedure:
 Maximum # iterations   MaxIter         ....   125
 SCF integral mode      SCFMode         .... Direct
   Integral package                     .... SHARK and LIBINT hybrid scheme
 Reset frequency        DirectResetFreq ....    20
 Integral Threshold     Thresh          ....  1.000e-12 Eh
 Primitive CutOff       TCut            ....  1.000e-14 Eh

Convergence Tolerance:
 Convergence Check Mode ConvCheckMode   .... Total+1el-Energy
 Convergence forced     ConvForced      .... 1
 Energy Change          TolE            ....  1.000e-09 Eh
 1-El. energy change                    ....  1.000e-06 Eh
 Orbital Gradient       TolG            ....  2.000e-06
 Orbital Rotation angle TolX            ....  2.000e-06
 DIIS Error             TolErr          ....  1.000e-08

------------------------------
INITIAL GUESS: MODEL POTENTIAL
------------------------------
Loading Hartree-Fock densities                     ... done
Calculating cut-offs                               ... done
Initializing the effective Hamiltonian             ... done
Setting up the integral package (SHARK)            ... done
Starting the Coulomb interaction                   ... done (   0.0 sec)
Making the grid                                    ... done (   0.0 sec)
Mapping shells                                     ... done
Starting the XC term evaluation                    ... done (   0.0 sec)
Transforming the Hamiltonian                       ... done (   0.0 sec)
Diagonalizing the Hamiltonian                      ... done (   0.0 sec)
Back transforming the eigenvectors                 ... done (   0.0 sec)
Now organizing SCF variables                       ... done
                      ------------------
                      INITIAL GUESS DONE (   0.0 sec)
                      ------------------
             **** ENERGY FILE WAS UPDATED (AR3LD_4.0_3.2_2.8.en.tmp) ****
Finished Guess after   0.1 sec
Maximum memory used throughout the entire GUESS-calculation: 6.7 MB

-------------------------------------------------------------------------------------------
                                      ORCA LEAN-SCF
                              memory conserving SCF solver
-------------------------------------------------------------------------------------------

----------------------------------------D-I-I-S--------------------------------------------
Iteration    Energy (Eh)           Delta-E    RMSDP     MaxDP     DIISErr   Damp  Time(sec)
-------------------------------------------------------------------------------------------
               ***  Starting incremental Fock matrix formation  ***
    1    -1580.3674648721344056     0.00e+00  1.13e-03  1.80e-02  9.20e-02  0.700   0.5
    2    -1580.3729161791636670    -5.45e-03  8.91e-04  1.31e-02  6.59e-02  0.700   0.4
                               ***Turning on AO-DIIS***
    3    -1580.3768943699492411    -3.98e-03  7.12e-04  9.58e-03  4.69e-02  0.700   0.4
    4    -1580.3797630291132919    -2.87e-03  1.75e-03  2.25e-02  3.29e-02  0.000   0.4
                              *** Initializing SOSCF ***
---------------------------------------S-O-S-C-F--------------------------------------
Iteration    Energy (Eh)           Delta-E    RMSDP     MaxDP     MaxGrad    Time(sec)
--------------------------------------------------------------------------------------
    5    -1580.3867993537980965    -7.04e-03  8.95e-05  9.98e-04  1.08e-03     0.4
               *** Restarting incremental Fock matrix formation ***
    6    -1580.3868093198370843    -9.97e-06  4.23e-05  5.54e-04  2.31e-04     0.4
    7    -1580.3868110108428482    -1.69e-06  1.54e-05  1.81e-04  5.37e-05     0.4
    8    -1580.3868111201031752    -1.09e-07  8.76e-07  1.59e-05  7.89e-06     0.7
    9    -1580.3868111206802496    -5.77e-10  1.76e-07  3.01e-06  1.26e-06     1.0
                 **** Energy Check signals convergence ****

               *****************************************************
               *                     SUCCESS                       *
               *           SCF CONVERGED AFTER   9 CYCLES          *
               *****************************************************

             **** ENERGY FILE WAS UPDATED (AR3LD_4.0_3.2_2.8.en.tmp) ****

----------------
TOTAL SCF ENERGY
----------------

Total Energy       :      -1580.38681112068025 Eh          -43004.51144 eV

Components:
Nuclear Repulsion  :        157.67590888738928 Eh            4290.57961 eV
Electronic Energy  :      -1738.06272000806962 Eh          -47295.09105 eV
One Electron Energy:      -2500.03052430354410 Eh          -68029.28911 eV
Two Electron Energy:        761.96780429547448 Eh           20734.19806 eV

Virial components:
Potential Energy   :      -3160.93956486269599 Eh          -86013.53840 eV
Kinetic Energy     :       1580.55275374201597 Eh           43009.02697 eV
Virial Ratio       :          1.99989500975469

---------------
SCF CONVERGENCE
---------------

  Last Energy change         ...    5.7707e-10  Tolerance :   1.0000e-09
  Last MAX-Density change    ...    3.0096e-06  Tolerance :   1.0000e-08
  Last RMS-Density change    ...    1.7574e-07  Tolerance :   1.0000e-09
  Last DIIS Error            ...    1.0754e-03  Tolerance :   1.0000e-08
  Last Orbital Gradient      ...    1.2618e-06  Tolerance :   2.0000e-06
  Last Orbital Rotation      ...    1.8454e-06  Tolerance :   2.0000e-06


----------------
ORBITAL ENERGIES
----------------

  NO   OCC          E(Eh)            E(eV) 
   0   2.0000    -118.609234     -3227.5213 
   1   2.0000    -118.605792     -3227.4277 
   2   2.0000    -118.604097     -3227.3816 
   3   2.0000     -12.321606      -335.2879 
   4   2.0000     -12.318857      -335.2131 
   5   2.0000     -12.317376      -335.1728 
   6   2.0000      -9.570194      -260.4182 
   7   2.0000      -9.570184      -260.4179 
   8   2.0000      -9.570183      -260.4179 
   9   2.0000      -9.567449      -260.3435 
  10   2.0000      -9.567351      -260.3409 
  11   2.0000      -9.567350      -260.3408 
  12   2.0000      -9.565960      -260.3030 
  13   2.0000      -9.565872      -260.3006 
  14   2.0000      -9.565864      -260.3004 
  15   2.0000      -1.288463       -35.0609 
  16   2.0000      -1.278602       -34.7925 
  17   2.0000      -1.269111       -34.5343 
  18   2.0000      -0.633791       -17.2463 
  19   2.0000      -0.614694       -16.7267 
  20   2.0000      -0.600340       -16.3361 
  21   2.0000      -0.593878       -16.1602 
  22   2.0000      -0.591412       -16.0931 
  23   2.0000      -0.587815       -15.9953 
  24   2.0000      -0.582035       -15.8380 
  25   2.0000      -0.570056       -15.5120 
  26   2.0000      -0.549893       -14.9633 
  27   0.0000       0.116918         3.1815 
  28   0.0000       0.121790         3.3141 
  29   0.0000       0.135099         3.6762 
  30   0.0000       0.135839         3.6964 
  31   0.0000       0.164249         4.4694 
  32   0.0000       0.171262         4.6603 
  33   0.0000       0.173084         4.7099 
  34   0.0000       0.180598         4.9143 
  35   0.0000       0.206274         5.6130 
  36   0.0000       0.208869         5.6836 
  37   0.0000       0.297036         8.0828 
*Only the first 10 virtual orbitals were printed.

                    ********************************
                    * MULLIKEN POPULATION ANALYSIS *
                    ********************************

-------------------------
MULLIKEN FRAGMENT CHARGES
-------------------------
 Fragment   0 :   0.002162
 Fragment   1 :  -0.001290
 Fragment   2 :  -0.000872
Sum of fragment charges:   -0.0000000

---------------------------------
MULLIKEN FRAGMENT OVERLAP CHARGES
---------------------------------
                  0          1          2    
      0      18.076294  -0.126493  -0.030420
      1      -0.126493  18.062690   0.003694
      2      -0.030420   0.003694  18.014235

-----------------------
MULLIKEN ATOMIC CHARGES
-----------------------
   0 Ar:    0.002162
   1 Ar:   -0.001290
   2 Ar:   -0.000872
Sum of atomic charges:   -0.0000000

--------------------------------
MULLIKEN REDUCED ORBITAL CHARGES
--------------------------------
  0 Ars       :     5.991998  s :     5.991998
      pz      :     3.999532  p :    12.004160
      px      :     4.003486
      py      :     4.001142
      dz2     :     0.000103  d :     0.001679
      dxz     :     0.000330
      dyz     :     0.000093
      dx2y2   :     0.000781
      dxy     :     0.000373

  1 Ars       :     5.995661  s :     5.995661
      pz      :     3.999689  p :    12.004178
      px      :     4.004593
      py      :     3.999896
      dz2     :     0.000180  d :     0.001451
      dxz     :     0.000332
      dyz     :     0.000005
      dx2y2   :     0.000554
      dxy     :     0.000381

  2 Ars       :     5.998182  s :     5.998182
      pz      :     3.999920  p :    12.002288
      px      :     3.999980
      py      :     4.002388
      dz2     :     0.000042  d :     0.000403
      dxz     :     0.000004
      dyz     :     0.000096
      dx2y2   :     0.000088
      dxy     :     0.000173



                     *******************************
                     * LOEWDIN POPULATION ANALYSIS *
                     *******************************

------------------------
LOEWDIN FRAGMENT CHARGES
------------------------
 Fragment   0 :  -0.004644
 Fragment   1 :   0.001566
 Fragment   2 :   0.003078

----------------------------
LOEWDIN FRAGMENT BOND ORDERS
----------------------------
                  0          1          2    
      0      18.004644   0.284588   0.129626
      1       0.284588  17.998434   0.024635
      2       0.129626   0.024635  17.996922

----------------------
LOEWDIN ATOMIC CHARGES
----------------------
   0 Ar:   -0.004644
   1 Ar:    0.001566
   2 Ar:    0.003078

-------------------------------
LOEWDIN REDUCED ORBITAL CHARGES
-------------------------------
  0 Ars       :     5.963696  s :     5.963696
      pz      :     3.998523  p :    12.012633
      px      :     4.006334
      py      :     4.007775
      dz2     :     0.006395  d :     0.028316
      dxz     :     0.001486
      dyz     :     0.000200
      dx2y2   :     0.018410
      dxy     :     0.001825

  1 Ars       :     5.971398  s :     5.971398
      pz      :     3.998441  p :    12.003483
      px      :     4.006260
      py      :     3.998782
      dz2     :     0.005161  d :     0.023552
      dxz     :     0.001477
      dyz     :     0.000000
      dx2y2   :     0.015472
      dxy     :     0.001442

  2 Ars       :     5.984055  s :     5.984055
      pz      :     3.999673  p :    12.007878
      px      :     3.999881
      py      :     4.008324
      dz2     :     0.001123  d :     0.004989
      dxz     :     0.000004
      dyz     :     0.000196
      dx2y2   :     0.003206
      dxy     :     0.000460



                      *****************************
                      * MAYER POPULATION ANALYSIS *
                      *****************************

  NA   - Mulliken gross atomic population
  ZA   - Total nuclear charge
  QA   - Mulliken gross atomic charge
  VA   - Mayer's total valence
  BVA  - Mayer's bonded valence
  FA   - Mayer's free valence

  ATOM       NA         ZA         QA         VA         BVA        FA
  0 Ar    17.9978    18.0000     0.0022    -0.0348    -0.0348     0.0000
  1 Ar    18.0013    18.0000    -0.0013    -0.0243    -0.0243    -0.0000
  2 Ar    18.0009    18.0000    -0.0009    -0.0021    -0.0021    -0.0000

  Mayer bond orders larger than 0.100000
  => no bond orders to print

-------
TIMINGS
-------

Total SCF time: 0 days 0 hours 0 min 4 sec 

Total time                  ....       4.634 sec
Sum of individual times     ....       4.623 sec  ( 99.8%)

SCF preparation             ....       0.029 sec  (  0.6%)
Fock matrix formation       ....       4.561 sec  ( 98.4%)
  Startup                   ....       0.001 sec  (  0.0% of F)
  Coulomb+Exchange Fock     ....       4.557 sec  ( 99.9% of F)
Diagonalization             ....       0.000 sec  (  0.0%)
Density matrix formation    ....       0.004 sec  (  0.1%)
Total Energy calculation    ....       0.001 sec  (  0.0%)
Population analysis         ....       0.008 sec  (  0.2%)
Orbital Transformation      ....       0.006 sec  (  0.1%)
Orbital Orthonormalization  ....       0.000 sec  (  0.0%)
DIIS solution               ....       0.006 sec  (  0.1%)
SOSCF solution              ....       0.007 sec  (  0.1%)
Finished LeanSCF after   4.6 sec

Maximum memory used throughout the entire LEANSCF-calculation: 8.7 MB

------------------------------------------------------------------------------
                         ORCA PROPERTY INTEGRAL CALCULATIONS
------------------------------------------------------------------------------

GBWName                                   ... AR3LD_4.0_3.2_2.8.gbw
Number of atoms                           ...      3
Number of basis functions                 ...    150
Max core memory                           ...   1024 MB

Dipole integrals                          ... YES
Quadrupole integrals                      ...  NO
Linear momentum integrals                 ... YES
Angular momentum integrals                ... YES
Higher moments length integrals           ...  NO
Higher moments velocity integrals         ...  NO
Kinetic energy integrals                  ...  NO
GIAO right hand sides                     ...  NO
GIAO dipole derivative integrals          ...  NO
SOC integrals                             ...  NO
EPR diamagnetic integrals (GIAO)          ...  NO
EPR gauge integrals                       ...  NO
Field gradient integrals                  ...  NO (   0 nuclei)
Spin-dipole/Fermi contact integrals       ...  NO (   0 nuclei)
Contact density integrals                 ...  NO (   0 nuclei)
Nucleus-orbit integrals                   ...  NO (   0 nuclei)
Geometric perturbations                   ...  NO (   3 nuclei)

Choice of electric origin   ... Center of mass
Position of electric origin ... (  1.9977,  2.0021,  0.0000) 
Choice of magnetic origin   ... GIAO
Position of magnetic origin ... (  0.0000,  0.0000,  0.0000) 

Calculating integrals                     ... Electric Dipole (Length)     done (  0.0 sec)
Calculating integrals                     ... Linear Momentum              done (  0.0 sec)
Calculating integrals                     ... Angular Momentum  (ElOri)    done (  0.0 sec)

Property integrals calculated in   0.0 sec

Maximum memory used throughout the entire PROPINT-calculation: 6.8 MB


--------------------------------------------------------------------------------
                             ORCA-MATRIX DRIVEN CI
--------------------------------------------------------------------------------


Wavefunction type
-----------------
Correlation treatment                      ...      CCSD     
Single excitations                         ... ON
Orbital optimization                       ... OFF
Calculation of Z vector                    ... OFF
Calculation of Brueckner orbitals          ... OFF
Perturbative triple excitations            ... OFF
Calculation of F12 correction              ... OFF
Frozen core treatment                      ... chemical core (30 el)
Reference Wavefunction                     ... RHF
  Internal Orbitals:    15 ...   26 ( 12 MO's/ 24 electrons)
  Virtual  Orbitals:    27 ...   80 ( 54 MO's              )
Number of AO's                             ...     81
Number of electrons                        ...     54
Number of correlated electrons             ...     24

Algorithmic settings
--------------------
Integral transformation                    ... All integrals via the RI transformation
K(C) Formation                             ... RI-DLPNO
   PNO-Integral Storage                    ... ON DISK
   PNO occupation number cut-off           ... 3.330e-07
   Singles PNO occupation number cut-off   ... 9.990e-09
   PNO Mulliken prescreening cut-off       ... 1.000e-03
   Domain cut-off (Mulliken population)    ... 1.000e-03
   PNO Normalization                       ...    1
Maximum number of iterations               ...        50
Convergence tolerance (max. residuum)      ... 1.000e-06
Level shift for amplitude update           ... 2.000e-01
Maximum number of DIIS vectors             ...         7
DIIS turned on at iteration                ...         0
Damping before turning on DIIS             ...     0.500
Damping after turning on DIIS              ...     0.000
Pair specific amplitude update             ... OFF
Natural orbital iterations                 ... OFF
Perturbative natural orbital generation    ... OFF
Printlevel                                 ... 2

Singles Fock matrix elements calculated using PNOs.

Memory handling:
----------------
Maximum memory for working arrays          ...    512 MB
Data storage in matrix containers          ... UNCOMPRESSED
Data type for integral storage             ... DOUBLE
In-Core Storage of quantities:
   Amplitudes+Sigma Vector      ... NO
   J+K operators                ... NO
   DIIS vectors                 ... NO
   3-external integrals         ... NO
   4-external integrals         ... NO

Localization treatment:
-----------------------
Localization option                        ...    2
Localization threshhold                    ... -1.0e+00
Using relative localization threshhold     ... 1.0e-08
Neglect threshold for strong pairs         ... 1.000e-05 Eh
Prescreening threshold for very weak pairs ... 1.000e-07 Eh
Using randomized seed for localization     ... on

Initializing the integral package          ... done
Localizing the valence orbitals
Localizing the valence orbitals
Localization sum:   169.288016510 
------------------------------------------------------------------------------
                           ORCA ORBITAL LOCALIZATION
------------------------------------------------------------------------------

Input orbitals are from                  ... AR3LD_4.0_3.2_2.8.proc0.gbw
Output orbitals are to                   ... AR3LD_4.0_3.2_2.8.proc0.loc
Max. number of iterations                ... 128
Localizations seeded randomly            ... on
Convergence tolerance                    ... 2.000e-07
Using relative localization threshhold   ... 1.000e-08
Threshold for strong local MOs           ... 9.500e-01
Threshold for bond MOs                   ... 8.500e-01
Operator                                 ... 0
Orbital range for localization           ... 15 to 26
Localization criterion                   ... FOSTER-BOYS
Doing the dipole integrals     ... o.k.
Entering Jacobi type localization:
Using Cholesky decomposition as initial guess.
Initial value of the localization sum :   162.343187
ITERATION   0 : L=  169.2152084575 DL=  6.87e+00 (MAX-T)=  45.000 
ITERATION   1 : L=  169.2274448778 DL=  1.22e-02 (MAX-T)=   3.240 
ITERATION   2 : L=  169.2311880335 DL=  3.74e-03 (MAX-T)=   1.322 
ITERATION   3 : L=  169.2347381889 DL=  3.55e-03 (MAX-T)=   1.519 
ITERATION   4 : L=  169.2378408724 DL=  3.10e-03 (MAX-T)=   1.382 
ITERATION   5 : L=  169.2405058512 DL=  2.66e-03 (MAX-T)=   1.197 
ITERATION   6 : L=  169.2434323388 DL=  2.93e-03 (MAX-T)=   1.169 
ITERATION   7 : L=  169.2452053030 DL=  1.77e-03 (MAX-T)=   0.981 
ITERATION   8 : L=  169.2472584470 DL=  2.05e-03 (MAX-T)=   0.864 
ITERATION   9 : L=  169.2492238734 DL=  1.97e-03 (MAX-T)=   0.914 
ITERATION  10 : L=  169.2507465113 DL=  1.52e-03 (MAX-T)=   0.952 
ITERATION  11 : L=  169.2521483960 DL=  1.40e-03 (MAX-T)=   0.672 
ITERATION  12 : L=  169.2531828742 DL=  1.03e-03 (MAX-T)=   0.700 
ITERATION  13 : L=  169.2541552150 DL=  9.72e-04 (MAX-T)=   0.753 
ITERATION  14 : L=  169.2549961892 DL=  8.41e-04 (MAX-T)=   0.558 
ITERATION  15 : L=  169.2557979615 DL=  8.02e-04 (MAX-T)=   0.492 
ITERATION  16 : L=  169.2564410154 DL=  6.43e-04 (MAX-T)=   0.423 
ITERATION  17 : L=  169.2569817538 DL=  5.41e-04 (MAX-T)=   0.484 
ITERATION  18 : L=  169.2576781953 DL=  6.96e-04 (MAX-T)=   0.513 
ITERATION  19 : L=  169.2582666492 DL=  5.88e-04 (MAX-T)=   0.527 
ITERATION  20 : L=  169.2588300916 DL=  5.63e-04 (MAX-T)=   0.419 
ITERATION  21 : L=  169.2592826707 DL=  4.53e-04 (MAX-T)=   0.461 
ITERATION  22 : L=  169.2595488367 DL=  2.66e-04 (MAX-T)=   0.437 
ITERATION  23 : L=  169.2599475456 DL=  3.99e-04 (MAX-T)=   0.418 
ITERATION  24 : L=  169.2602695191 DL=  3.22e-04 (MAX-T)=   0.434 
ITERATION  25 : L=  169.2606383031 DL=  3.69e-04 (MAX-T)=   0.401 
ITERATION  26 : L=  169.2609547924 DL=  3.16e-04 (MAX-T)=   0.346 
ITERATION  27 : L=  169.2612211427 DL=  2.66e-04 (MAX-T)=   0.346 
ITERATION  28 : L=  169.2614614507 DL=  2.40e-04 (MAX-T)=   0.352 
ITERATION  29 : L=  169.2616772024 DL=  2.16e-04 (MAX-T)=   0.277 
ITERATION  30 : L=  169.2618796462 DL=  2.02e-04 (MAX-T)=   0.311 
ITERATION  31 : L=  169.2620667745 DL=  1.87e-04 (MAX-T)=   0.268 
ITERATION  32 : L=  169.2622299292 DL=  1.63e-04 (MAX-T)=   0.304 
ITERATION  33 : L=  169.2623639160 DL=  1.34e-04 (MAX-T)=   0.275 
ITERATION  34 : L=  169.2625097131 DL=  1.46e-04 (MAX-T)=   0.286 
ITERATION  35 : L=  169.2626431053 DL=  1.33e-04 (MAX-T)=   0.237 
ITERATION  36 : L=  169.2627503570 DL=  1.07e-04 (MAX-T)=   0.202 
ITERATION  37 : L=  169.2628358989 DL=  8.55e-05 (MAX-T)=   0.212 
ITERATION  38 : L=  169.2629217001 DL=  8.58e-05 (MAX-T)=   0.217 
ITERATION  39 : L=  169.2630130477 DL=  9.13e-05 (MAX-T)=   0.173 
ITERATION  40 : L=  169.2630903203 DL=  7.73e-05 (MAX-T)=   0.178 
ITERATION  41 : L=  169.2631525583 DL=  6.22e-05 (MAX-T)=   0.178 
ITERATION  42 : L=  169.2632222195 DL=  6.97e-05 (MAX-T)=   0.147 
ITERATION  43 : L=  169.2632900156 DL=  6.78e-05 (MAX-T)=   0.166 
ITERATION  44 : L=  169.2633412447 DL=  5.12e-05 (MAX-T)=   0.152 
ITERATION  45 : L=  169.2634068725 DL=  6.56e-05 (MAX-T)=   0.124 
ITERATION  46 : L=  169.2634570154 DL=  5.01e-05 (MAX-T)=   0.137 
ITERATION  47 : L=  169.2635146627 DL=  5.76e-05 (MAX-T)=   0.116 
ITERATION  48 : L=  169.2635695210 DL=  5.49e-05 (MAX-T)=   0.136 
ITERATION  49 : L=  169.2636327958 DL=  6.33e-05 (MAX-T)=   0.117 
ITERATION  50 : L=  169.2636986783 DL=  6.59e-05 (MAX-T)=   0.151 
ITERATION  51 : L=  169.2637727260 DL=  7.40e-05 (MAX-T)=   0.190 
ITERATION  52 : L=  169.2638427476 DL=  7.00e-05 (MAX-T)=   0.208 
ITERATION  53 : L=  169.2639569834 DL=  1.14e-04 (MAX-T)=   0.211 
ITERATION  54 : L=  169.2641051698 DL=  1.48e-04 (MAX-T)=   0.282 
ITERATION  55 : L=  169.2642559932 DL=  1.51e-04 (MAX-T)=   0.299 
ITERATION  56 : L=  169.2644898614 DL=  2.34e-04 (MAX-T)=   0.364 
ITERATION  57 : L=  169.2648120486 DL=  3.22e-04 (MAX-T)=   0.420 
ITERATION  58 : L=  169.2651475718 DL=  3.36e-04 (MAX-T)=   0.383 
ITERATION  59 : L=  169.2654644864 DL=  3.17e-04 (MAX-T)=   0.441 
ITERATION  60 : L=  169.2659108670 DL=  4.46e-04 (MAX-T)=   0.479 
ITERATION  61 : L=  169.2664750075 DL=  5.64e-04 (MAX-T)=   0.704 
ITERATION  62 : L=  169.2669280961 DL=  4.53e-04 (MAX-T)=   0.644 
ITERATION  63 : L=  169.2674630760 DL=  5.35e-04 (MAX-T)=   0.717 
ITERATION  64 : L=  169.2683937727 DL=  9.31e-04 (MAX-T)=   0.755 
ITERATION  65 : L=  169.2693879750 DL=  9.94e-04 (MAX-T)=   0.757 
ITERATION  66 : L=  169.2706069449 DL=  1.22e-03 (MAX-T)=   0.990 
ITERATION  67 : L=  169.2718950002 DL=  1.29e-03 (MAX-T)=   0.830 
ITERATION  68 : L=  169.2731364767 DL=  1.24e-03 (MAX-T)=   1.078 
ITERATION  69 : L=  169.2746974047 DL=  1.56e-03 (MAX-T)=   0.991 
ITERATION  70 : L=  169.2760325228 DL=  1.34e-03 (MAX-T)=   0.900 
ITERATION  71 : L=  169.2768963020 DL=  8.64e-04 (MAX-T)=   0.832 
ITERATION  72 : L=  169.2780732849 DL=  1.18e-03 (MAX-T)=   1.067 
ITERATION  73 : L=  169.2795784987 DL=  1.51e-03 (MAX-T)=   0.805 
ITERATION  74 : L=  169.2808233350 DL=  1.24e-03 (MAX-T)=   0.896 
ITERATION  75 : L=  169.2819008367 DL=  1.08e-03 (MAX-T)=   0.865 
ITERATION  76 : L=  169.2830512983 DL=  1.15e-03 (MAX-T)=   0.873 
ITERATION  77 : L=  169.2840694569 DL=  1.02e-03 (MAX-T)=   0.800 
ITERATION  78 : L=  169.2848960725 DL=  8.27e-04 (MAX-T)=   0.697 
ITERATION  79 : L=  169.2855606947 DL=  6.65e-04 (MAX-T)=   0.581 
ITERATION  80 : L=  169.2860335197 DL=  4.73e-04 (MAX-T)=   0.591 
ITERATION  81 : L=  169.2864285102 DL=  3.95e-04 (MAX-T)=   0.565 
ITERATION  82 : L=  169.2867984673 DL=  3.70e-04 (MAX-T)=   0.451 
ITERATION  83 : L=  169.2870244948 DL=  2.26e-04 (MAX-T)=   0.482 
ITERATION  84 : L=  169.2872314793 DL=  2.07e-04 (MAX-T)=   0.395 
ITERATION  85 : L=  169.2873772576 DL=  1.46e-04 (MAX-T)=   0.377 
ITERATION  86 : L=  169.2874831492 DL=  1.06e-04 (MAX-T)=   0.319 
ITERATION  87 : L=  169.2875953373 DL=  1.12e-04 (MAX-T)=   0.307 
ITERATION  88 : L=  169.2876825300 DL=  8.72e-05 (MAX-T)=   0.252 
ITERATION  89 : L=  169.2877539460 DL=  7.14e-05 (MAX-T)=   0.209 
ITERATION  90 : L=  169.2878119790 DL=  5.80e-05 (MAX-T)=   0.194 
ITERATION  91 : L=  169.2878631020 DL=  5.11e-05 (MAX-T)=   0.159 
ITERATION  92 : L=  169.2878947053 DL=  3.16e-05 (MAX-T)=   0.152 
ITERATION  93 : L=  169.2879207271 DL=  2.60e-05 (MAX-T)=   0.136 
ITERATION  94 : L=  169.2879429995 DL=  2.23e-05 (MAX-T)=   0.128 
ITERATION  95 : L=  169.2879588161 DL=  1.58e-05 (MAX-T)=   0.110 
ITERATION  96 : L=  169.2879727910 DL=  1.40e-05 (MAX-T)=   0.087 
ITERATION  97 : L=  169.2879823934 DL=  9.60e-06 (MAX-T)=   0.091 
ITERATION  98 : L=  169.2879921434 DL=  9.75e-06 (MAX-T)=   0.064 
ITERATION  99 : L=  169.2879990491 DL=  6.91e-06 (MAX-T)=   0.063 
ITERATION 100 : L=  169.2880041539 DL=  5.10e-06 (MAX-T)=   0.050 
ITERATION 101 : L=  169.2880079374 DL=  3.78e-06 (MAX-T)=   0.048 
ITERATION 102 : L=  169.2880103182 DL=  2.38e-06 (MAX-T)=   0.042 
ITERATION 103 : L=  169.2880129999 DL=  2.68e-06 (MAX-T)=   0.034 
ITERATION 104 : L=  169.2880148787 DL=  1.88e-06 (MAX-T)=   0.030 
ITERATION 105 : L=  169.2880165095 DL=  1.63e-06 (MAX-T)=   0.032 
LOCALIZATION SUM CONVERGED


--------------------------------------------------------------------------------
                    LOCALIZED MOLECULAR ORBITAL COMPOSITIONS
--------------------------------------------------------------------------------

The Mulliken populations for each LMO on each atom are computed
The LMO`s will be ordered according to atom index and type
  (A) Strongly localized MO`s have populations of >=0.950 on one atom
  (B) Two center bond orbitals have populations of >=0.850 on two atoms
  (C) Other MO`s are considered to be `delocalized`

FOUND  -  12 strongly local MO`s
       -   0 two center bond MO`s
       -   0 significantly delocalized MO`s

Rather strongly localized orbitals:
MO  26:   2Ar -   1.000277
MO  25:   2Ar -   1.000328
MO  24:   2Ar -   1.000153
MO  23:   2Ar -   1.000932
MO  22:   1Ar -   1.002236
MO  21:   1Ar -   1.001949
MO  20:   1Ar -   1.002010
MO  19:   1Ar -   1.002031
MO  18:   0Ar -   1.003072
MO  17:   0Ar -   1.003052
MO  16:   0Ar -   1.001936
MO  15:   0Ar -   1.001762
Localized MO's were stored in: AR3LD_4.0_3.2_2.8.proc0.loc

Localizing the core orbitals
Localization sum:   203.292973260 
------------------------------------------------------------------------------
                           ORCA ORBITAL LOCALIZATION
------------------------------------------------------------------------------

Input orbitals are from                  ... AR3LD_4.0_3.2_2.8.proc0.loc
Output orbitals are to                   ... AR3LD_4.0_3.2_2.8.proc0.loc
Max. number of iterations                ... 128
Localizations seeded randomly            ... on
Convergence tolerance                    ... 2.000e-07
Using relative localization threshhold   ... 1.000e-08
Threshold for strong local MOs           ... 9.500e-01
Threshold for bond MOs                   ... 8.500e-01
Operator                                 ... 0
Orbital range for localization           ... 0 to 14
Localization criterion                   ... FOSTER-BOYS
Doing the dipole integrals     ... o.k.
Entering Jacobi type localization:
Using Cholesky decomposition as initial guess.
Initial value of the localization sum :   202.836487
ITERATION   0 : L=  203.2889045809 DL=  4.52e-01 (MAX-T)=  45.000 
ITERATION   1 : L=  203.2929203969 DL=  4.02e-03 (MAX-T)=   7.996 
ITERATION   2 : L=  203.2929692613 DL=  4.89e-05 (MAX-T)=   0.935 
ITERATION   3 : L=  203.2929731524 DL=  3.89e-06 (MAX-T)=   0.235 
ITERATION   4 : L=  203.2929732601 DL=  1.08e-07 (MAX-T)=   0.054 
LOCALIZATION SUM CONVERGED


--------------------------------------------------------------------------------
                    LOCALIZED MOLECULAR ORBITAL COMPOSITIONS
--------------------------------------------------------------------------------

The Mulliken populations for each LMO on each atom are computed
The LMO`s will be ordered according to atom index and type
  (A) Strongly localized MO`s have populations of >=0.950 on one atom
  (B) Two center bond orbitals have populations of >=0.850 on two atoms
  (C) Other MO`s are considered to be `delocalized`

FOUND  -  15 strongly local MO`s
       -   0 two center bond MO`s
       -   0 significantly delocalized MO`s

Rather strongly localized orbitals:
MO  14:   2Ar -   1.000012
MO  13:   2Ar -   1.000024
MO  12:   2Ar -   1.000026
MO  11:   2Ar -   1.000000
MO  10:   2Ar -   1.000014
MO   9:   1Ar -   1.000015
MO   8:   1Ar -   1.000000
MO   7:   1Ar -   1.000050
MO   6:   1Ar -   1.000038
MO   5:   1Ar -   1.000025
MO   4:   0Ar -   1.000001
MO   3:   0Ar -   1.000049
MO   2:   0Ar -   1.000053
MO   1:   0Ar -   1.000066
MO   0:   0Ar -   1.000028
Localized MO's were stored in: AR3LD_4.0_3.2_2.8.proc0.loc

Warning: reference  - re-canonicalizations have been set to INT 1 VIRT 1
Warning: internal orbitals are localized - no re-canonicalization of internal orbitals
Warning: UsePNO is turned on - no re-canonicalization of internal and virtual orbitals
Fock densities were made 
Making Fock matrix and reference energy:

--------------------------
CLOSED-SHELL FOCK OPERATOR
--------------------------

Time needed for Fock operator              ...            1.802 sec
Reference energy                           ...  -1580.386811121

--------------
DLPNO SETTINGS (2015 fully linear scaling implementation)
--------------

TCutMKN:           1.000e-03
TCutPAO:           1.000e-03
TCutPNO:           3.330e-07
TCutPNOSingles:    9.990e-09
TCutEN:            9.700e-01
TCutPAOExt:        1.000e-01
TCutPairs:         1.000e-05
TCutPre:           1.000e-07
TCutOSV:           1.000e-06
TCutDOij:          1.000e-05
TCutDO:            1.000e-02
TCutC:             1.000e-04
TCutCPAO:          1.000e-03
TCutCMO:           1.000e-03
TScaleDOMP2PreScr: 2.000e+00
TScaleMKNMP2PreScr:1.000e+01
TScalePNOMP2PreScr:1.000e+00
PAO overlap thresh 1.000e-08
Using PNOs for Singles Fock computation
Use new domains
Use fully linear algorithm

--------------------------
Mulliken population of the LMOs            ... ok
Performing proximity check                 ... No problems found
Calculating differential overlap integrals ... ok

------------------------
PRESCREENING OF HF PAIRS
------------------------

   .... Finished loop over pairs

                  ============================================
                    30 of   78 PAIRS WERE SKIPPED as HF PAIRS
                  ============================================

Total time spent in skipping HF pairs                 ...     0.000 sec
--------------------------
ELECTRON PAIR PRESCREENING
--------------------------

Dipole-based pair screening          .... used

   TCutDOij = 1.000000e-05
   TCutPre  = 1.000000e-07
   .... Finished loop over pairs
Total time spent in the prescreening                  ...     0.000 sec
sum of pair energies estimated for screened out pairs ...       0.000000000000 Eh
Thresholds for map construction and integral transformation for crude MP2:
   TCutMKN                    ...     1.0e-02
   TCutDO                     ...     2.0e-02
   TCutPairs                  ...     1.0e-05
   TCutPNO_CrudeMP2           ...     3.3e-07
   TCutPNOSingles_CrudeMP2    ...     1.0e-08
--------------------------------
LOCAL RI TRANSFORMATION (IAVPAO)
--------------------------------

Orbital window:      15 to 26
Number of PAOs:      81
Basis functions:     81 (33 shells)
Aux. functions:     276 (84 shells)
Use SHARK:           on
Have SHARK:         yes

Processing maps (0.0 sec)
Average map sizes:
   Aux shells -> MOs              12.0
   Aux shells -> PAOs             81.0
   MOs        -> AO shells        33.0
   PAOs       -> AO shells        33.0

Calculating integrals (0.1 sec, 2.050 MB)
Sorting integrals (0.0 sec, 2.047 MB)
Total time for the integral transformation: 0.1 sec
--------------------------------
INITIAL GUESS AND PNO GENERATION
--------------------------------

Populations of internal orbitals onto Fragments:
  15:      1.002    0.002    0.000  assigned to fragment   1
  16:      1.002    0.001    0.001  assigned to fragment   1
  17:      1.003    0.002    0.001  assigned to fragment   1
  18:      1.003    0.002    0.001  assigned to fragment   1
  19:      0.002    1.002    0.000  assigned to fragment   2
  20:      0.002    1.002    0.000  assigned to fragment   2
  21:      0.002    1.002    0.000  assigned to fragment   2
  22:      0.003    1.002    0.000  assigned to fragment   2
  23:      0.001    0.000    1.001  assigned to fragment   3
  24:      0.000    0.000    1.000  assigned to fragment   3
  25:      0.001    0.000    1.000  assigned to fragment   3
  26:      0.000    0.000    1.000  assigned to fragment   3

Summary assignment:
   4 orbitals assigned to fragment   1
   4 orbitals assigned to fragment   2
   4 orbitals assigned to fragment   3

PNO truncation parameters                   .... 
    PAOOverlapThresh   =        1.000e-08

Pair selection                          .... 
  modified with fragment specific keywords
  Pairs will be selected according to these
  intra(inter)fragment cutoffs
  1 <-> 1
    Intrafragment pairs 1 <-> 1 neglected for CCSD
  1 <-> 2
    TCutPairs          =        1.000e-05
    TCutPNO            =        3.330e-07
    TCutMKN            =        1.000e-02
    TCutDO             =        2.000e-02
    TCutPNOSingles     =        9.990e-09
    TCutMP2Pairs       =        1.000e-06
  1 <-> 3
    TCutPairs          =        1.000e-05
    TCutPNO            =        3.330e-07
    TCutMKN            =        1.000e-02
    TCutDO             =        2.000e-02
    TCutPNOSingles     =        9.990e-09
    TCutMP2Pairs       =        1.000e-06
  2 <-> 2
    Intrafragment pairs 2 <-> 2 neglected for CCSD
  2 <-> 3
    TCutPairs          =        1.000e-05
    TCutPNO            =        3.330e-07
    TCutMKN            =        1.000e-02
    TCutDO             =        2.000e-02
    TCutPNOSingles     =        9.990e-09
    TCutMP2Pairs       =        1.000e-06
  3 <-> 3
    Intrafragment pairs 3 <-> 3 neglected for CCSD

Type of local MP2 treatment                 .... semi-local MP2
Strategy for PNO selection                  .... occupation number selection
Pair density normalization                  .... MP2 norm
Spin component scaling                      .... not used

   .... Finished loop over pairs
Making pair pair interaction lists          ... done

                       ===========================
                         48 OF   60 PAIRS ARE KEPT CCSD PAIRS
                          0 OF   60 PAIRS ARE KEPT MP2 PAIRS
                         12 OF   60 PAIRS ARE SKIPPED
                       ===========================

Total time spent in the initial guess                 ...     0.100 sec
SL-MP2 correlation energy (all non-screened pairs)    ...      -0.005474106416 Eh

Initial PNO correlation energy                        ...      -0.005355795711 Eh
sum of pair energies prescreened and skipped MP2 pairs...       0.000000000000 Eh
sum of pair energies of crude MP2 skipped pairs only  ...       0.000000000000 Eh
sum of MP2 pair energies for pairs that were not kept ...       0.000000000000 Eh
sum of PNO error estimates for the kept pairs         ...      -0.000118310705 Eh
                                                          --------------------
sum of all corrections                                         -0.000118310705
Initial total correlation energy                               -0.005474106416
Thresholds for map construction and integral transformation for fine MP2 and CCSD(T) calculation:
   TCutMKN   ...     1.0e-03
   TCutDO    ...     1.0e-02
   TCutPairs ...     1.0e-05
   TCutCMO   ...     1.0e-03
   TCutCPAO  ...     1.0e-03

--------------------------------
LOCAL RI TRANSFORMATION (IAVPAO)
--------------------------------

Orbital window:      15 to 26
Number of PAOs:      81
Basis functions:     81 (33 shells)
Aux. functions:     276 (84 shells)
Use SHARK:           on
Have SHARK:         yes

Processing maps (0.0 sec)
Average map sizes:
   Aux shells -> MOs              12.0
   Aux shells -> PAOs             81.0
   MOs        -> AO shells        33.0
   PAOs       -> AO shells        33.0

Calculating integrals (0.1 sec, 2.050 MB)
Sorting integrals (0.0 sec, 2.047 MB)
Total time for the integral transformation: 0.1 sec
--------------------------------
INITIAL GUESS AND PNO GENERATION
--------------------------------

Populations of internal orbitals onto Fragments:
  15:      1.002    0.002    0.000  assigned to fragment   1
  16:      1.002    0.001    0.001  assigned to fragment   1
  17:      1.003    0.002    0.001  assigned to fragment   1
  18:      1.003    0.002    0.001  assigned to fragment   1
  19:      0.002    1.002    0.000  assigned to fragment   2
  20:      0.002    1.002    0.000  assigned to fragment   2
  21:      0.002    1.002    0.000  assigned to fragment   2
  22:      0.003    1.002    0.000  assigned to fragment   2
  23:      0.001    0.000    1.001  assigned to fragment   3
  24:      0.000    0.000    1.000  assigned to fragment   3
  25:      0.001    0.000    1.000  assigned to fragment   3
  26:      0.000    0.000    1.000  assigned to fragment   3

Summary assignment:
   4 orbitals assigned to fragment   1
   4 orbitals assigned to fragment   2
   4 orbitals assigned to fragment   3

PNO truncation parameters                   .... 
    PAOOverlapThresh   =        1.000e-08

Pair selection                          .... 
  modified with fragment specific keywords
  Pairs will be selected according to these
  intra(inter)fragment cutoffs
  1 <-> 1
    Intrafragment pairs 1 <-> 1 neglected for CCSD
  1 <-> 2
    TCutPairs          =        1.000e-05
    TCutPNO            =        3.330e-07
    TCutMKN            =        1.000e-03
    TCutDO             =        1.000e-02
    TCutPNOSingles     =        9.990e-09
    TCutMP2Pairs       =        1.000e-06
  1 <-> 3
    TCutPairs          =        1.000e-05
    TCutPNO            =        3.330e-07
    TCutMKN            =        1.000e-03
    TCutDO             =        1.000e-02
    TCutPNOSingles     =        9.990e-09
    TCutMP2Pairs       =        1.000e-06
  2 <-> 2
    Intrafragment pairs 2 <-> 2 neglected for CCSD
  2 <-> 3
    TCutPairs          =        1.000e-05
    TCutPNO            =        3.330e-07
    TCutMKN            =        1.000e-03
    TCutDO             =        1.000e-02
    TCutPNOSingles     =        9.990e-09
    TCutMP2Pairs       =        1.000e-06
  3 <-> 3
    Intrafragment pairs 3 <-> 3 neglected for CCSD

Type of local MP2 treatment                 .... semi-local MP2
Strategy for PNO selection                  .... occupation number selection
Pair density normalization                  .... MP2 norm
Spin component scaling                      .... not used

   .... Finished loop over pairs

 PNO Occupation Number Statistics: 
  | Av. % of trace(Dij) retained        ...  98.717171961370
  | sigma^2 in % of trace(Dij) retained ...   9.97e-02
  | Av. % of trace(Di) retained         ...  99.999837200938
  | sigma^2 in % of trace(Di) retained  ...   3.98e-09
 Distributions of % trace(Dij) recovered:
  |   [90.0, 99.0) ...    36 ( 75.0 % of all pairs)
  |   [99.0, 99.9) ...    12 ( 25.0 % of all pairs)
 Distributions of % trace(Di) recovered :
  |       >= 99.9  ...    12 (100.0 % of all I-pairs )

Making pair pair interaction lists          ... done

                       ===========================
                         48 OF   60 PAIRS ARE KEPT
                       ===========================

Total time spent in the initial guess                 ...     0.137 sec
SL-MP2 correlation energy (all non-screened pairs)    ...      -0.005474063334 Eh

Initial PNO correlation energy                        ...      -0.005355725629 Eh
sum of pair energies estimated for screened out pairs ...       0.000000000000 Eh
sum of MP2 pair energies for pairs that were not kept ...       0.000000000000 Eh
sum of PNO error estimates for the kept pairs         ...      -0.000118337705 Eh
                                                          --------------------
sum of all corrections                                         -0.000118337705
Initial total correlation energy                               -0.005474063334
Thresholds for map construction and integral transformation for fine MP2 and CCSD(T) calculation:
   TCutMKN   ...     1.0e-03
   TCutDO    ...     1.0e-02
   TCutPairs ...     1.0e-05
   TCutCMO   ...     1.0e-03
   TCutCPAO  ...     1.0e-03

Time for aux screen maps:            0.000
Time for maps after fine MP2:            0.000
-----------------------------
LOCAL RI TRANSFORMATION (IJV)
-----------------------------

Orbital window:      15 to 26
Basis functions:     81 (33 shells)
Aux. functions:     276 (84 shells)
Use SHARK:           on

Processing maps (0.0 sec)
Average map sizes:
   Aux shells -> MOs(i)           12.0
   Aux shells -> MOs(j)           12.0
   MOs        -> AO shells        33.0

Calculating integrals NOTE: Switching SHARK to General Contraction for MDCI
      If that is not desired please turn off the PGCFlag in the input (%shark PGCFlag 0 end)
(0.4 sec, 0.306 MB)
Sorting integrals (0.0 sec, 0.303 MB)
Total time for the integral transformation: 0.4 sec
--------------------------------
LOCAL RI TRANSFORMATION (VABPAO)
--------------------------------

Number of PAOs:      81
Basis functions:     81 (33 shells)
Aux. functions:     276 (84 shells)
Use SHARK:           on

Processing maps (0.0 sec)
Average map sizes:
   Aux shells -> PAOs             81.0
   PAOs       -> AO shells        33.0

Calculating integrals NOTE: Switching SHARK to General Contraction for MDCI
      If that is not desired please turn off the PGCFlag in the input (%shark PGCFlag 0 end)
(0.3 sec, 13.819 MB)
Finished


-------------------------------------
Pair Pair Term precalculation with     
RI-(ij|mn) and (im|jn) transformation  
ON THE FLY                             
-------------------------------------

   IBatch   1 (of   1)              ... done (    0.401 sec)
Total EXT                           ...           0.401 sec

IAVPA Available = YES
VABPAO Available= YES
IJV Available   = YES
IJK Available   = NO
PNO3i Available = YES
PNO3j Available = YES
PNO4 Available  = YES
---------------------
RI-PNO TRANSFORMATION
---------------------

Total Number of PNOs                   ...   418
Average number of PNOs per pair        ...     8
Maximal number of PNOs per pair        ...    13
   #pairs with  1 -  5 PNOs   :    0
   #pairs with  6 - 10 PNOs   :   34
   #pairs with 11 - 15 PNOs   :   14
   #pairs with 16 - 20 PNOs   :    0
   #pairs with 21 - 25 PNOs   :    0
   #pairs with 26 - 30 PNOs   :    0
   #pairs with 31 - 35 PNOs   :    0
   #pairs with 36 - 40 PNOs   :    0
   #pairs with 41 - 45 PNOs   :    0
   #pairs with 46 - 50 PNOs   :    0

Generation of (ij|ab)[P] integrals            ... on
Generation of (ia|bc)[P],(ja|bc)[P] integrals ... on
Storage of 3 and 4 external integrals         ... on
Generation of ALL (ka|bc)[P] integrals        ... on
Keep RI integrals in memory                   ... off

Ibatch:  1 (of  1)
Starting 2-4 index PNO integral generation ... done

Timings:
Total PNO integral transformation time     ...          0.307 sec
Size of the 3-external file                ...         0 MB
Size of the 4-external file                ...         0 MB
Size of the IKJL file                      ...         0 MB
Size of the all 3-external file            ...         1 MB
Size of the 1-external file                ...         0 MB

Making pair/pair overlap matrices          ... done (    0.036 sec)
Size of the pair overlap file              ... 1 MB
Redoing the guess amplitudes               ... done (    0.000 sec)

-------------------------
FINAL STARTUP INFORMATION
-------------------------

E(0)                                       ...  -1580.386811121
E(SL-MP2)                                  ...     -0.005474063
E(SL-MP2) including corrections            ...     -0.005474063
Initial E(tot)                             ...  -1580.392285184
<T|T>                                      ...      0.001975007
Number of pairs included                   ... 48
Total number of pairs                      ... 78

------------------------------------------------
                  RHF COUPLED CLUSTER ITERATIONS
------------------------------------------------

Number of PNO amplitudes to be optimized   ...         3918
Number of non-PNO amplitudes               ...       139968
Untruncated number of regular amplitudes   ...       227448

Iter       E(tot)           E(Corr)          Delta-E          Residual     Time
  0  -1580.392284816     -0.005355358      0.000118705      0.000974431    0.06
                           *** Turning on DIIS ***
  1  -1580.391914928     -0.004985469      0.000369889      0.000202630    0.05
  2  -1580.391958742     -0.005029284     -0.000043814      0.000048357    0.06
  3  -1580.391961117     -0.005031659     -0.000002375      0.000017594    0.08
  4  -1580.391961972     -0.005032513     -0.000000854      0.000002638    0.06
  5  -1580.391962090     -0.005032632     -0.000000119      0.000000716    0.06
               --- The Coupled-Cluster iterations have converged ---

----------------------
COUPLED CLUSTER ENERGY
----------------------

E(0)                                       ...  -1580.386811121
E(CORR)(strong-pairs)                      ...     -0.005032632
E(CORR)(weak-pairs)                        ...     -0.000118338
E(CORR)(corrected)                         ...     -0.005150970
E(TOT)                                     ...  -1580.391962090
Singles Norm <S|S>**1/2                    ...      0.002761444  
T1 diagnostic                              ...      0.000563677  

------------------
LARGEST AMPLITUDES
------------------
  22-> 28  18-> 28       0.001784
  21-> 29  16-> 29       0.001775
  20-> 28  17-> 28       0.001761
  23-> 27  16-> 27       0.001737
  19-> 27  15-> 27       0.001720
  20-> 28  17-> 32       0.001524
  19-> 27  15-> 30       0.001477
  21-> 29  16-> 32       0.001469
  22-> 32  18-> 28       0.001437
  19-> 30  15-> 27       0.001435
  22-> 28  18-> 32       0.001427
  21-> 32  16-> 29       0.001401
  19-> 31  18-> 27       0.001389
  22-> 27  15-> 31       0.001382
  20-> 27  17-> 27       0.001352
  19-> 30  16-> 31       0.001348


 ===========================================================
         LOCAL ENERGY DECOMPOSITION FOR DLPNO-CC METHODS
 ===========================================================

Maximum Iterations for the Localization .. 600
Tolerance for the Localization          ..  1.00e-06
Number of fragments = 3
Fragment  1:  0
Fragment  2:  1
Fragment  3:  2

Populations of internal orbitals onto Fragments:
   0:      1.000    0.000    0.000  assigned to fragment   1
   1:      1.000    0.000    0.000  assigned to fragment   1
   2:      1.000    0.000    0.000  assigned to fragment   1
   3:      1.000    0.000    0.000  assigned to fragment   1
   4:      1.000    0.000    0.000  assigned to fragment   1
   5:      0.000    1.000    0.000  assigned to fragment   2
   6:      0.000    1.000    0.000  assigned to fragment   2
   7:      0.000    1.000    0.000  assigned to fragment   2
   8:      0.000    1.000    0.000  assigned to fragment   2
   9:      0.000    1.000    0.000  assigned to fragment   2
  10:      0.000    0.000    1.000  assigned to fragment   3
  11:      0.000    0.000    1.000  assigned to fragment   3
  12:      0.000    0.000    1.000  assigned to fragment   3
  13:      0.000    0.000    1.000  assigned to fragment   3
  14:      0.000    0.000    1.000  assigned to fragment   3
  15:      1.002    0.002    0.000  assigned to fragment   1
  16:      1.002    0.001    0.001  assigned to fragment   1
  17:      1.003    0.002    0.001  assigned to fragment   1
  18:      1.003    0.002    0.001  assigned to fragment   1
  19:      0.002    1.002    0.000  assigned to fragment   2
  20:      0.002    1.002    0.000  assigned to fragment   2
  21:      0.002    1.002    0.000  assigned to fragment   2
  22:      0.003    1.002    0.000  assigned to fragment   2
  23:      0.001    0.000    1.001  assigned to fragment   3
  24:      0.000    0.000    1.000  assigned to fragment   3
  25:      0.001    0.000    1.000  assigned to fragment   3
  26:      0.000    0.000    1.000  assigned to fragment   3

Summary assignment:
   9 orbitals assigned to fragment   1
   9 orbitals assigned to fragment   2
   9 orbitals assigned to fragment   3


--------------------------------
CORRELATION ENERGY DECOMPOSITION
--------------------------------


--------------------------------------------------
INTER- vs INTRA-FRAGMENT CORRELATION ENERGIES (Eh)
--------------------------------------------------

                                   Fragment   1            Fragment   2            Fragment   3            
                         ----------------------  ----------------------  ----------------------  
Intra strong pairs               0.000000000000         0.000000000000         0.000000000000  sum=        0.000000000000
Intra weak pairs                 0.000000000000         0.000000000000         0.000000000000  sum=        0.000000000000
Singles contribution            -0.000000000392        -0.000000000255        -0.000000000059  sum=       -0.000000000706
                         ----------------------  ----------------------  ----------------------  
                                -0.000000000392        -0.000000000255        -0.000000000059  sum=       -0.000000000706


Interaction correlation for Fragments   2 and   1:
--------------------------------------------------
Inter strong pairs               -0.003119460859 (   -1.957 kcal/mol)
Inter weak pairs                 -0.000065911994 (   -0.041 kcal/mol)
                          ----------------------
Total interaction                -0.003185372852 (   -1.999 kcal/mol)

Interaction correlation for Fragments   3 and   1:
--------------------------------------------------
Inter strong pairs               -0.001530719698 (   -0.961 kcal/mol)
Inter weak pairs                 -0.000044981042 (   -0.028 kcal/mol)
                          ----------------------
Total interaction                -0.001575700740 (   -0.989 kcal/mol)
Interaction correlation for Fragments   3 and   2:
--------------------------------------------------
Inter strong pairs               -0.000382450680 (   -0.240 kcal/mol)
Inter weak pairs                 -0.000007444669 (   -0.005 kcal/mol)
                          ----------------------
Total interaction                -0.000389895349 (   -0.245 kcal/mol)



Sum of INTRA-fragment correlation energies  =        -0.000000000706
Sum of INTER-fragment correlation energies  =        -0.005150968942
                                              ---------------------
Total correlation energy                    =        -0.005150969648

---------------------------------------------
DECOMPOSITION OF CCSD STRONG PAIRS INTO      
    DOUBLE EXCITATION TYPES (Eh)             
---------------------------------------------

Foster-Boys localization is used for localizing PNOs

Intra fragment contributions: 
INTRA Fragment 1                        0.000000000 
INTRA Fragment 2                        0.000000000 
INTRA Fragment 3                        0.000000000 

Charge transfer contributions: 
Charge Transfer 1 to 2                 -0.000326072 
Charge Transfer 1 to 3                 -0.000077831 
Charge Transfer 2 to 1                 -0.000305837 
Charge Transfer 2 to 3                 -0.000001012 
Charge Transfer 3 to 1                 -0.000087011 
Charge Transfer 3 to 2                 -0.000001057 

Dispersion contributions: 
Dispersion  2,1                        -0.002487552 
Dispersion  3,1                        -0.001365877 
Dispersion  3,2                        -0.000380382 

Singles contributions:                   
Singles energy                         -0.000000001 
 
Delocalized contributions: 
Delocalized correlation                 0.000000000 

#Time for LED analysis ..       0.0 (sec)



--------------------------------------------------------------------------------
                                    TIMINGS
--------------------------------------------------------------------------------


Total execution time                   ...        5.509 sec

Localization of occupied MO's          ...        0.208 sec (  3.8%)
Fock Matrix Formation                  ...        1.802 sec ( 32.7%)
Global overlap, Fock, MKN matrices     ...        0.282 sec (  5.1%)
Differential overlap integrals         ...        0.476 sec (  8.6%)
Organizing maps                        ...        0.002 sec (  0.0%)
RI 3-index integral generations        ...        0.866 sec ( 15.7%)
RI-PNO integral transformation         ...        0.748 sec ( 13.6%)
Initial Guess                          ...        0.257 sec (  4.7%)
DIIS Solver                            ...        0.004 sec (  0.1%)
State Vector Update                    ...        0.000 sec (  0.0%)
Sigma-vector construction              ...        0.362 sec (  6.6%)
  <D|H|D>(0-ext)                       ...        0.047 sec ( 13.0% of sigma)
  <D|H|D>(2-ext)                       ...        0.089 sec ( 24.7% of sigma)
  <D|H|D>(4-ext)                       ...        0.006 sec (  1.5% of sigma)
  <D|H|D>(4-ext-corr)                  ...        0.019 sec (  5.3% of sigma)
  CCSD doubles correction              ...        0.009 sec (  2.4% of sigma)
  <S|H|S>                              ...        0.022 sec (  6.1% of sigma)
  <S|H|D>(1-ext)                       ...        0.018 sec (  4.9% of sigma)
  <S|H|D>(3-ext)                       ...        0.003 sec (  0.9% of sigma)
  Fock-dressing                        ...        0.089 sec ( 24.5% of sigma)
  Singles amplitudes                   ...        0.004 sec (  1.1% of sigma)
  (ik|jl)-dressing                     ...        0.025 sec (  7.0% of sigma)
  (ij|ab),(ia|jb)-dressing             ...        0.026 sec (  7.2% of sigma)
Local Energy Decomposition             ...        0.017 sec (  0.3% of ALL)


Maximum memory used throughout the entire MDCI-calculation: 105.6 MB
----------------------------   ----------------
Inter-fragment dispersion       -0.004352149
----------------------------   ----------------


-------------------------   --------------------
FINAL SINGLE POINT ENERGY     -1580.391163269918 
-------------------------   --------------------


------------------------------------------------------------------------------
                              ORCA PROPERTY CALCULATIONS
------------------------------------------------------------------------------

GBWName                                 ... AR3LD_4.0_3.2_2.8.gbw
Number of atoms                         ...      3
Number of basis functions               ...    150
Max core memory                         ...   1024 MB

Electric properties:
Dipole moment                           ... YES
Quadrupole moment                       ...  NO
Static polarizability (Dipole/Dipole)   ...  NO
Static polarizability (Dipole/Quad.)    ...  NO
Static polarizability (Quad./Quad.)     ...  NO
Static polarizability (Velocity)        ...  NO

Atomic electric properties:
Dipole moment                           ...  NO
Quadrupole moment                       ...  NO
Static polarizability                   ...  NO

Choice of electric origin               ... Center of mass
Position of electric origin             ...     1.997710     2.002083     0.000000

General magnetic properties:
Magnetizability                         ...  NO

EPR properties:
g-Tensor (aka g-matrix)                 ...  NO
Zero-Field splitting spin-orbit         ...  NO
Zero-field splitting spin-spin          ...  NO
Hyperfine couplings                     ...  NO (   0 nuclei)
Quadrupole couplings                    ...  NO (   0 nuclei)
Contact density                         ...  NO (   0 nuclei)

NMR properties:
Chemical shifts                         ...  NO (   0 nuclei)
Spin-rotation constants                 ...  NO (   0 nuclei)
Spin-spin couplings                     ...  NO (   0 nuclei,    0 pairs)

Choice of magnetic origin               ... GIAO
Position of magnetic origin             ...     0.000000     0.000000     0.000000

Properties with geometric perturbations:
SCF Hessian                             ...  NO
IR spectrum                             ...  NO
VCD spectrum                            ...  NO
X-ray spectroscopy properties:
SCF XES/XAS/RIXS spectra                ...  NO


-------------
DIPOLE MOMENT
-------------

Method             : SCF
Type of density    : Electron Density
Multiplicity       :   1
Irrep              :   0
Energy             : -1580.3868111206802496 Eh
Relativity type    : 
Basis              : AO
                                X                 Y                 Z
Electronic contribution:     -0.001314090       0.000431764      -0.000000000
Nuclear contribution   :     -0.000000000       0.000000000       0.000000000
                        -----------------------------------------
Total Dipole Moment    :     -0.001314090       0.000431764      -0.000000000
                        -----------------------------------------
Magnitude (a.u.)       :      0.001383204
Magnitude (Debye)      :      0.003515825



--------------------
Rotational spectrum 
--------------------
 
Rotational constants in cm-1:             0.129494             0.052090             0.037147 
Rotational constants in MHz :          3882.130224          1561.604670          1113.638486 

Dipole components along the rotational axes: 
x,y,z [a.u.] :    -0.001064     0.000884    -0.000000 
x,y,z [Debye]:    -0.002704     0.002247    -0.000000 

 

Dipole moment calculation done in   0.0 sec 

Maximum memory used throughout the entire PROP-calculation: 6.8 MB

--------------------------------
SUGGESTED CITATIONS FOR THIS RUN
--------------------------------

Below you find a list of papers that are relevant to this ORCA run
We neither can nor want to force you to cite these papers, but we appreciate if you do
You receive ORCA, which is the product of decades of hard work by many enthusiastic individuals, for free
The only thing we kindly ask in return is that you cite our papers,
We deeply appreciate it, if you show your appreciation for ORCA by not just citing the generic ORCA reference.

Please note that relegating all ORCA citations to the supporting information does *not* help us.
SI sections are not indexed - citations you put there will not count into any citation statistics
But we need these citations in order to attract the funding resources that allow us to do what we are doing

Therefore, if you are a happy ORCA user, please consider citing a few of the papers listed below in the main body of your paper

In addition to the list printed below, the program has created the file AR3LD_4.0_3.2_2.8.bibtex that contains the list in bibtex format
You can import this file easily into all common literature databanks and citation aid programs


List of essential papers. We consider these as the minimum necessary citations

  1. Neese,F.
     Software update: the ORCA program system, version 5.0
     WIRES Comput. Molec. Sci., 2022 12(1)e1606
     doi.org/10.1002/wcms.1606

List of papers to cite with high priority. The work reported in these papers was absolutely
necessary for this run to complete.
Our perspective: the developers of density functionals and basis sets usually get cited in chemistry papers
Good! But without the algorithms to do something with them, the functionals or basis sets would not do anything.
Hence, in our opinion, the algorithm design and method developments papers are equally worthy of getting cited

  1. Neese,F.; Hansen,A.; Liakos,D.G.
     Efficient and accurate approximations to the local coupled cluster singles doubles method using a truncated pair natural orbital basis
     J. Chem. Phys., 2009 131 064103
     doi.org/10.1063/1.3173827
  2. Neese,F.; Wennmohs,F.; Hansen,A.
     Efficient and accurate local approximations to coupled-electron pair approaches: An attempt to revive the pair natural orbital method
     J. Chem. Phys., 2009 130 114108
     doi.org/10.1063/1.3086717
  3. Riplinger,C.; Neese,F.
     An efficient and near linear scaling pair natural orbital based local coupled cluster method
     J. Chem. Phys., 2013 138(3)Art. No. 034106
     doi.org/10.1063/1.4773581
  4. Datta,D.; Kossmann,S.; Neese,F.
     Analytic energy derivatives for the calculation of the first-order molecular properties using the domain-based local pair-natural orbital coupled-cluster theory
     J. Chem. Phys., 2016 145 
     doi.org/10.1063/1.4962369
  5. Riplinger,C.; Pinski,P.; Becker,U.; Valeev,E.F.; Neese,F.
     Sparse maps-A systematic infrastructure for reduced-scaling electronic structure methods. II. Linear scaling domain based pair natural orbital coupled cluster theory
     J. Chem. Phys., 2016 144 
     doi.org/10.1063/1.4939030
  6. Schneider,W.B.; Bistoni,G.; Sparta,M.; Saitow,M.; Riplinger,C.; Auer,A.A.; Neese,F.
     Decomposition of Intermolecular Interaction Energies within the Local Pair Natural Orbital Coupled Cluster Framework
     J. Theo. Comp. Chem., 2016 12 4778-4792
     doi.org/10.1021/acs.jctc.6b00523
  7. Bistoni,G.; Riplinger,C.; Minenkov,Y.; Cavallo,L.; Auer,A.A.; Neese,F.
     Treating Subvalence Correlation Effects in Domain Based Pair Natural Orbital Coupled Cluster Calculations: An Out-of-the-Box Approach
     J. Theo. Comp. Chem., 2017 13 3220-3227
     doi.org/10.1021/acs.jctc.7b00352
  8. Altun,A.; Neese,F.; Bistoni,G.
     HFLD: A Nonempirical London Dispersion-Corrected Hartree-Fock Method for the Quantification and Analysis of Noncovalent Interaction Energies of Large Molecular Systems
     J. Chem. Theory Comput., 2019 15 5894-5907
     doi.org/10.1021/acs.jctc.9b00425
  9. Neese,F.
     The SHARK Integral Generation and Digestion System
     J. Comp. Chem., 2022  1-16
     doi.org/10.1002/jcc.26942
 10. Altun,A.; Neese,F.; Bistoni,G.
     Open-Shell Variant of the London Dispersion-Corrected Hartree–Fock Method (HFLD) for the Quantification and Analysis of Noncovalent Interaction Energies
     J. Chem. Theory Comput., 2022 XX XXXX-XXXX
     doi.org/10.1021/acs.jctc.1c01295

List of suggested additional citations. These are papers that are important in the 'surrounding' of 
of this run, or papers that preceded the highly important papers. If you like your results we are grateful for a citation.

  1. Neese,F.
     The ORCA program system
     WIRES Comput. Molec. Sci., 2012 2(1)73-78
     doi.org/10.1002/wcms.81
  2. Neese,F.
     Software update: the ORCA program system, version 4.0
     WIRES Comput. Molec. Sci., 2018 8(1)1-6
     doi.org/10.1002/wcms.1327
  3. Neese,F.; Wennmohs,F.; Becker,U.; Riplinger,C.
     The ORCA quantum chemistry program package
     J. Chem. Phys., 2020 152 Art. No. L224108
     doi.org/10.1063/5.0004608
  4. Bistoni,G.
     Finding chemical concepts in the Hilbert space: Coupled cluster analyses of noncovalent interactions
     WIRES Comput. Molec. Sci., 2020 10(3)e1442
     doi.org/10.1002/wcms.1442

List of optional additional citations

  1. Neese,F.
     Approximate second-order SCF convergence for spin unrestricted wavefunctions
     Chem. Phys. Lett., 2000 325(1-3)93-98
     doi.org/10.1016/s0009-2614(00)00662-x

Timings for individual modules:

Sum of individual times          ...       12.424 sec (=   0.207 min)
Startup calculation              ...        1.880 sec (=   0.031 min)  15.1 %
SCF iterations                   ...        4.761 sec (=   0.079 min)  38.3 %
Property integrals               ...        0.157 sec (=   0.003 min)   1.3 %
Property calculations            ...        0.068 sec (=   0.001 min)   0.6 %
MDCI module                      ...        5.558 sec (=   0.093 min)  44.7 %
                             ****ORCA TERMINATED NORMALLY****
TOTAL RUN TIME: 0 days 0 hours 0 minutes 12 seconds 529 msec
