
                                 *****************
                                 * O   R   C   A *
                                 *****************

                                            #,                                       
                                            ###                                      
                                            ####                                     
                                            #####                                    
                                            ######                                   
                                           ########,                                 
                                     ,,################,,,,,                         
                               ,,#################################,,                 
                          ,,##########################################,,             
                       ,#########################################, ''#####,          
                    ,#############################################,,   '####,        
                  ,##################################################,,,,####,       
                ,###########''''           ''''###############################       
              ,#####''   ,,,,##########,,,,          '''####'''          '####       
            ,##' ,,,,###########################,,,                        '##       
           ' ,,###''''                  '''############,,,                           
         ,,##''                                '''############,,,,        ,,,,,,###''
      ,#''                                            '''#######################'''  
     '                                                          ''''####''''         
             ,#######,   #######,   ,#######,      ##                                
            ,#'     '#,  ##    ##  ,#'     '#,    #''#        ,####,   ,####,        
            ##       ##  ##   ,#'  ##            #'  '#       #'       #'  '#        
            ##       ##  #######   ##           ,######,      #####,   #    #        
            '#,     ,#'  ##    ##  '#,     ,#' ,#      #,     #,   #   #,  ,#        
             '#######'   ##     ##  '#######'  #'      '#     '####' # '####'        



                #########################################################
                #                        -***-                          #
                #          Department of theory and spectroscopy        #
                #                                                       #
                #                      Frank Neese                      #
                #                                                       #
                #     Directorship, Architecture, Infrastructure        #
                #                    SHARK, DRIVERS                     #
                #        Core code/Algorithms in most modules           #
                #                                                       #
                #        Max Planck Institute fuer Kohlenforschung      #
                #                Kaiser Wilhelm Platz 1                 #
                #                 D-45470 Muelheim/Ruhr                 #
                #                      Germany                          #
                #                                                       #
                #                  All rights reserved                  #
                #                        -***-                          #
                #########################################################


                         Program Version 6.0.0  -   RELEASE  -


 With contributions from (in alphabetic order):
   Daniel Aravena         : Magnetic Suceptibility
   Michael Atanasov       : Ab Initio Ligand Field Theory (pilot matlab implementation)
   Alexander A. Auer      : GIAO ZORA, VPT2 properties, NMR spectrum
   Ute Becker             : All parallelization in ORCA, NUMFREQ, NUMCALC
   Giovanni Bistoni       : ED, misc. LED, open-shell LED, HFLD
   Martin Brehm           : Molecular dynamics
   Dmytro Bykov           : pre 5.0 version of the SCF Hessian
   Marcos Casanova-Páez   : Triplet and SCS-CIS(D). UHF-(DLPNO)-IP/EA/STEOM-CCSD. UHF-CVS-IP/STEOM-CCSD
   Vijay G. Chilkuri      : MRCI spin determinant printing, contributions to CSF-ICE
   Pauline Colinet        : FMM embedding
   Dipayan Datta          : RHF DLPNO-CCSD density
   Achintya Kumar Dutta   : EOM-CC, STEOM-CC
   Nicolas Foglia         : Exact transition moments, OPA infrastructure, MCD improvements
   Dmitry Ganyushin       : Spin-Orbit,Spin-Spin,Magnetic field MRCI
   Miquel Garcia          : C-PCM and meta-GGA Hessian, CCSD/C-PCM, Gaussian charge scheme
   Tiago L. C. Gouveia    : GS-ROHF, GS-ROCIS
   Yang Guo               : DLPNO-NEVPT2, F12-NEVPT2, CIM, IAO-localization
   Andreas Hansen         : Spin unrestricted coupled pair/coupled cluster methods
   Ingolf Harden          : AUTO-CI MPn and infrastructure 
   Benjamin Helmich-Paris : MC-RPA, TRAH-(SCF,CASSCF), AVAS, COSX integrals, SCF dyn. polar.
   Lee Huntington         : MR-EOM, pCC
   Robert Izsak           : Overlap fitted RIJCOSX, COSX-SCS-MP3, EOM
   Riya Kayal             : Wick's Theorem for AUTO-CI, AUTO-CI UHF-CCSDT
   Emily Kempfer          : AUTO-CI, RHF CISDT and CCSDT
   Christian Kollmar      : KDIIS, OOCD, Brueckner-CCSD(T), CCSD density, CASPT2, CASPT2-K, improved NEVPT2
   Axel Koslowski         : Symmetry handling
   Simone Kossmann        : Meta GGA functionals, TD-DFT gradient, OOMP2, (MP2 Hessian; deprecated post 5.0)
   Lucas Lang             : DCDCAS
   Marvin Lechner         : AUTO-CI (C++ implementation), FIC-MRCC
   Spencer Leger          : CASSCF response
   Dagmar Lenk            : GEPOL surface, SMD, ORCA-2-JSON
   Dimitrios Liakos       : Extrapolation schemes; Compound Job, initial MDCI parallelization
   Dimitrios Manganas     : Further ROCIS development; embedding schemes. LFT, Crystal Embedding
   Dimitrios Pantazis     : SARC Basis sets
   Anastasios Papadopoulos: AUTO-CI, single reference methods and gradients
   Taras Petrenko         : pre 6.0 DFT Hessian and TD-DFT gradient, (ASA, deprecated), ECA, 1-Electron XAS/XES, NRVS
   Peter Pinski           : DLPNO-MP2, DLPNO-MP2 Gradient
   Christoph Reimann      : Effective Core Potentials
   Marius Retegan         : Local ZFS, SOC
   Christoph Riplinger    : Optimizer, TS searches, QM/MM, DLPNO-CCSD(T), (RO)-DLPNO pert. Triples
   Michael Roemelt        : Original ROCIS implementation
   Masaaki Saitow         : Open-shell DLPNO-CCSD energy and density
   Barbara Sandhoefer     : DKH picture change effects
   Kantharuban Sivalingam : CASSCF convergence/infrastructure, NEVPT2 and variants, FIC-MRCI
   Bernardo de Souza      : ESD, SOC TD-DFT
   Georgi Stoychev        : AutoAux, RI-MP2 NMR, DLPNO-MP2 response, X2C
   Van Anh Tran           : RI-MP2 g-tensors
   Willem Van den Heuvel  : Paramagnetic NMR
   Zikuan Wang            : NOTCH, Electric field optimization 
   Frank Wennmohs         : Technical directorship and infrastructure
   Hang Xu                : AUTO-CI-Response properties 


 We gratefully acknowledge several colleagues who have allowed us to
 interface, adapt or use parts of their codes:
   Stefan Grimme, W. Hujo, H. Kruse, P. Pracht,  : VdW corrections, initial TS optimization,
                  C. Bannwarth, S. Ehlert,         DFT functionals, gCP, sTDA/sTD-DF
                  L. Wittmann, M. Mueller
   Ed Valeev, F. Pavosevic, A. Kumar             : LibInt (2-el integral package), F12 methods
   Garnet Chan, S. Sharma, J. Yang, R. Olivares  : DMRG
   Ulf Ekstrom                                   : XCFun DFT Library
   Mihaly Kallay                                 : mrcc  (arbitrary order and MRCC methods)
   Frank Weinhold                                : gennbo (NPA and NBO analysis)
   Simon Mueller                                 : openCOSMO-RS
   Christopher J. Cramer and Donald G. Truhlar   : smd solvation model
   Lars Goerigk                                  : TD-DFT with DH, B97 family of functionals
   V. Asgeirsson, H. Jonsson                     : NEB implementation
   FAccTs GmbH                                   : IRC, NEB, NEB-TS, DLPNO-Multilevel, CI-OPT
                                                   MM, QMMM, 2- and 3-layer-ONIOM, Crystal-QMMM,
                                                   LR-CPCM, SF, NACMEs, symmetry and pop. for TD-DFT,
                                                   nearIR, NL-DFT gradient (VV10), updates on ESD,
                                                   ML-optimized integration grids, MBIS, APM,
                                                   GOAT, DOCKER, SOLVATOR, interface openCOSMO-RS
   S Lehtola, MJT Oliveira, MAL Marques          : LibXC Library
   Liviu Ungur et al                             : ANISO software


 Your calculation uses the libint2 library for the computation of 2-el integrals
 For citations please refer to: http://libint.valeyev.net

 Your ORCA version has been built with support for libXC version: 6.2.2
 For citations please refer to: https://libxc.gitlab.io

 This ORCA versions uses:
   CBLAS   interface :  Fast vector & matrix operations
   LAPACKE interface :  Fast linear algebra routines
   SCALAPACK package :  Parallel linear algebra routines
   Shared memory     :  Shared parallel matrices
   BLAS/LAPACK       :  OpenBLAS 0.3.27  USE64BITINT DYNAMIC_ARCH NO_AFFINITY Haswell SINGLE_THREADED
        Core in use  :  Haswell
   Copyright (c) 2011-2014, The OpenBLAS Project


================================================================================

----- Orbital basis set information -----
Your calculation utilizes the basis: aug-cc-pVDZ 
    H, B-Ne : Obtained from the ccRepo (grant-hill.group.shef.ac.uk/ccrepo) Feb. 2017
              R. A. Kendall, T. H. Dunning, Jr., R. J. Harrison, J. Chem. Phys. 96, 6796 (1992)
         He : Obtained from the ccRepo (grant-hill.group.shef.ac.uk/ccrepo) Feb. 2017
              D. E. Woon, T. H. Dunning, Jr., J. Chem. Phys. 100, 2975 (1994)
  Li-Be, Na : Obtained from the ccRepo (grant-hill.group.shef.ac.uk/ccrepo) Feb. 2017
              B. P. Prascher, D. E. Woon, K. A. Peterson, T. H. Dunning, Jr., A. K. Wilson, Theor. Chem. Acc. 128, 69 (2011)
         Mg : Obtained from the Peterson Research Group Website (tyr0.chem.wsu.edu/~kipeters) Feb. 2017
              B. P. Prascher, D. E. Woon, K. A. Peterson, T. H. Dunning, Jr., A. K. Wilson, Theor. Chem. Acc. 128, 69 (2011)
      Al-Ar : Obtained from the ccRepo (grant-hill.group.shef.ac.uk/ccrepo) Feb. 2017
              D. E. Woon, T. H. Dunning, Jr., J. Chem. Phys. 98, 1358 (1993)
      Sc-Zn : Obtained from the ccRepo (grant-hill.group.shef.ac.uk/ccrepo) Feb. 2017
              N. B. Balabanov, K. A. Peterson, J. Chem. Phys. 123, 064107 (2005)
              N. B. Balabanov, K. A. Peterson, J. Chem. Phys. 125, 074110 (2006)
      Ga-Kr : Obtained from the ccRepo (grant-hill.group.shef.ac.uk/ccrepo) Feb. 2017
              A. K. Wilson, D. E. Woon, K. A. Peterson, T. H. Dunning, Jr., J. Chem. Phys. 110, 7667 (1999)

----- AuxC basis set information -----
Your calculation utilizes the auxiliary basis: aug-cc-pVDZ/C 
  H-He, B, Ne, Al-Ar, Ga-Ge, Se-Br : Obtained from the EMSL Basis Set Exchange (bse.pnl.gov) Feb. 2017
                                     F. Weigend, A. Kohn, C. Hattig, J. Chem. Phys. 116, 3175 (2002)
                            Be, Mg : Obtained from the TURBOMOLE 7.0 basis set library
                                     C. Haettig, Phys. Chem. Chem. Phys. 7, 59 (2005)
                               C-F : Obtained from the EMSL Basis Set Exchange (bse.pnl.gov) Feb. 2017
                                     C. Haettig, Phys. Chem. Chem. Phys. 7, 59 (2005)
                                     F. Weigend, A. Kohn, C. Hattig, J. Chem. Phys. 116, 3175 (2002)
                                As : Obtained from the EMSL Basis Set Exchange (bse.pnl.gov) Feb. 2017
                                     C. Haettig, G. Schmitz, J. Kossmann, Phys. Chem. Chem. Phys. 14, 6549 (2012)
                                Kr : Obtained from the TURBOMOLE 7.0 basis set library
                                     F. Weigend, A. Kohn, C. Hattig, J. Chem. Phys. 116, 3175 (2002)
                                     S function revised in Sep. 2009

================================================================================
                                        WARNINGS
                       Please study these warnings very carefully!
================================================================================


WARNING: Post HF methods need fully converged wavefunctions
  ===> : Setting SCFConvForced true
         You can overwrite this default with %scf ConvForced false 


================================================================================
                                       INPUT FILE
================================================================================
NAME = AR3LD_3.2_4.8_4.8.inp
|  1> # MP2 scan of the potential energy curve for Ar...Ar
|  2>                 ! HFLD aug-cc-pvdz aug-cc-pvdz/C verytightscf
|  3>                 *xyz 0 1
|  4>                 Ar(1)	0    0	0.00000000000000
|  5>                 Ar(2)	4.8	0    0.00000000000000
|  6>                 Ar(3)	3.733333333333333	3.016988933062603    0.00000000000000
|  7>                 **                         ****END OF INPUT****
================================================================================

                       ****************************
                       * Single Point Calculation *
                       ****************************

---------------------------------
CARTESIAN COORDINATES (ANGSTROEM)
---------------------------------
  Ar     0.000000    0.000000    0.000000
  Ar     4.800000    0.000000    0.000000
  Ar     3.733333    3.016989    0.000000

----------------------------
CARTESIAN COORDINATES (A.U.)
----------------------------
  NO LB      ZA    FRAG     MASS         X           Y           Z
   0 Ar   18.0000    1    39.948    0.000000    0.000000    0.000000
   1 Ar   18.0000    2    39.948    9.070685    0.000000    0.000000
   2 Ar   18.0000    3    39.948    7.054978    5.701283    0.000000

----------------------------------------------
CARTESIAN COORDINATES OF FRAGMENTS (ANGSTROEM)
----------------------------------------------

 FRAGMENT 1 
  Ar    0.000000    0.000000    0.000000

 FRAGMENT 2 
  Ar    4.800000    0.000000    0.000000

 FRAGMENT 3 
  Ar    3.733333    3.016989    0.000000

--------------------------------
INTERNAL COORDINATES (ANGSTROEM)
--------------------------------
 Ar     0   0   0     0.000000000000     0.00000000     0.00000000
 Ar     1   0   0     4.800000000000     0.00000000     0.00000000
 Ar     2   1   0     3.200000000000    70.52877937     0.00000000

---------------------------
INTERNAL COORDINATES (A.U.)
---------------------------
 Ar     0   0   0     0.000000000000     0.00000000     0.00000000
 Ar     1   0   0     9.070685442822     0.00000000     0.00000000
 Ar     2   1   0     6.047123628548    70.52877937     0.00000000

---------------------
BASIS SET INFORMATION
---------------------
There are 1 groups of distinct atoms

 Group   1 Type Ar  : 35s16p2d contracted to 5s4p2d pattern {11111111/7711/11}

Atom   0Ar   basis set group =>   1
Atom   1Ar   basis set group =>   1
Atom   2Ar   basis set group =>   1
---------------------------------
AUXILIARY/C BASIS SET INFORMATION
---------------------------------
There are 1 groups of distinct atoms

 Group   1 Type Ar  : 10s8p6d4f contracted to 10s8p6d4f pattern {1111111111/11111111/111111/1111}

Atom   0Ar   basis set group =>   1
Atom   1Ar   basis set group =>   1
Atom   2Ar   basis set group =>   1
------------------------------------------------------------------------------
                             ORCA STARTUP CALCULATIONS
------------------------------------------------------------------------------
------------------------------------------------------------------------------
                   ___                                                        
                  /   \      - P O W E R E D   B Y -                         
                 /     \                                                     
                 |  |  |   _    _      __       _____    __    __             
                 |  |  |  | |  | |    /  \     |  _  \  |  |  /  |          
                  \  \/   | |  | |   /    \    | | | |  |  | /  /          
                 / \  \   | |__| |  /  /\  \   | |_| |  |  |/  /          
                |  |  |   |  __  | /  /__\  \  |    /   |      \           
                |  |  |   | |  | | |   __   |  |    \   |  |\   \          
                \     /   | |  | | |  |  |  |  | |\  \  |  | \   \       
                 \___/    |_|  |_| |__|  |__|  |_| \__\ |__|  \__/        
                                                                              
                      - O R C A' S   B I G   F R I E N D -                    
                                      &                                       
                       - I N T E G R A L  F E E D E R -                       
                                                                              
 v1 FN, 2020, v2 2021, v3 2022-2024                                           
------------------------------------------------------------------------------


----------------------
SHARK INTEGRAL PACKAGE
----------------------

Number of atoms                             ...      3
Number of basis functions                   ...    150
Number of shells                            ...     72
Maximum angular momentum                    ...      2
Integral batch strategy                     ... SHARK/LIBINT Hybrid
RI-J (if used) integral strategy            ... SPLIT-RIJ (Revised 2003 algorithm where possible)
Printlevel                                  ...      1
Contraction scheme used                     ... PARTIAL GENERAL contraction
Prescreening option                         ... SCHWARTZ
   Thresh                                   ... 1.000e-12
   Tcut                                     ... 1.000e-14
   Tpresel                                  ... 1.000e-14 
Coulomb Range Separation                    ... NOT USED
Exchange Range Separation                   ... NOT USED
Multipole approximations                    ... NOT USED
Finite Nucleus Model                        ... NOT USED
CABS basis                                  ... NOT available
Auxiliary Coulomb fitting basis             ... NOT available
Auxiliary J/K fitting basis                 ... NOT available
Auxiliary Correlation fitting basis         ... AVAILABLE
   # of basis functions in Aux-C            ...    276
   # of shells in Aux-C                     ...     84
   Maximum angular momentum in Aux-C        ...      3
Auxiliary 'external' fitting basis          ... NOT available

Checking pre-screening integrals            ... done (  0.0 sec) Dimension = 72
Save PGC pre-screening integrals            ... done (  0.0 sec) Dimension = 72
Calculate PGC overlap integrals             ... done (  0.0 sec) Dimension = 33
Calculating pre-screening integrals (ORCA)  ... done (  0.1 sec) Dimension = 33
Check shell pair data                       ... done (  0.0 sec)
Shell pair information
Shell pair cut-off parameter TPreSel        ...   1.0e-14
Total number of shell pairs                 ...      2628
Shell pairs after pre-screening             ...      1671
Total number of primitive shell pairs       ...      2628
Primitive shell pairs kept                  ...      1669
          la=0 lb=0:    440 shell pairs
          la=1 lb=0:    629 shell pairs
          la=1 lb=1:    249 shell pairs
          la=2 lb=0:    194 shell pairs
          la=2 lb=1:    138 shell pairs
          la=2 lb=2:     21 shell pairs

Calculating one electron integrals          ... done (  0.0 sec)
Calculating RI/C V-Matrix + Cholesky decomp.... done (  0.0 sec)
Calculating Nuclear repulsion               ... done (  0.0 sec) ENN=    125.018115460875 Eh

Diagonalization of the overlap matrix:
Smallest eigenvalue                        ... 2.387e-02
Time for diagonalization                   ...    0.001 sec
Threshold for overlap eigenvalues          ... 1.000e-07
Number of eigenvalues below threshold      ... 0
Time for construction of square roots      ...    0.000 sec
Total time needed                          ...    0.001 sec

-------------------
DFT GRID GENERATION
-------------------

General Integration Accuracy     IntAcc      ... 4.388
Radial Grid Type                 RadialGrid  ... OptM3 with GC (2021)
Angular Grid (max. ang.)         AngularGrid ... 4 (Lebedev-302)
Angular grid pruning method      GridPruning ... 4 (adaptive)
Weight generation scheme         WeightScheme... mBecke (2022)
Basis function cutoff            BFCut       ... 1.0000e-12
Integration weight cutoff        WCut        ... 1.0000e-14
Partially contracted basis set               ... off
Rotationally invariant grid construction     ... off
Angular grids for H and He will be reduced by one unit

Total number of grid points                  ...    22086
Total number of batches                      ...      347
Average number of points per batch           ...       63
Average number of grid points per atom       ...     7362

---------------------
SHARK GRID GENERATION
---------------------

General Integration Accuracy     IntAcc      ... 4.388
Radial Grid Type                 RadialGrid  ... OptM3 with GC (2021)
Angular Grid (max. ang.)         AngularGrid ... 4 (Lebedev-302)
Angular grid pruning method      GridPruning ... 4 (adaptive)
Weight generation scheme         WeightScheme... mBecke (2022)
Basis function cutoff            BFCut       ... 1.0000e-12
Integration weight cutoff        WCut        ... 1.0000e-14
Partially contracted basis set               ... off
Rotationally invariant grid construction     ... off
Angular grids for H and He will be reduced by one unit
Core-polarized basis detected: some atoms will have their core
                               angular grid increased.
Steep s-basis detected: some atoms will have their radial
                        grid points doubled.

Total number of grid points                  ...    58024
Total number of batches                      ...      909
Average number of points per batch           ...       63
Average number of grid points per atom       ...    19341
Initializing property integral containers    ... done (  0.0 sec)

SHARK setup successfully completed in   1.2 seconds

Maximum memory used throughout the entire STARTUP-calculation: 27.4 MB
-------------------------------------------------------------------------------
                                 ORCA GUESS
                   Start orbitals & Density for SCF / CASSCF
-------------------------------------------------------------------------------

------------
SCF SETTINGS
------------
Hamiltonian:
 Ab initio Hamiltonian  Method          .... Hartree-Fock(GTOs)


General Settings:
 Integral files         IntName         .... AR3LD_3.2_4.8_4.8
 Hartree-Fock type      HFTyp           .... RHF
 Total Charge           Charge          ....    0
 Multiplicity           Mult            ....    1
 Number of Electrons    NEL             ....   54
 Basis Dimension        Dim             ....   81
 Nuclear Repulsion      ENuc            ....    125.0181154609 Eh

Convergence Acceleration:
 AO-DIIS                CNVDIIS         .... on
   Start iteration      DIISMaxIt       ....    12
   Startup error        DIISStart       ....  0.200000
   # of expansion vecs  DIISMaxEq       ....     5
   Bias factor          DIISBfac        ....   1.050
   Max. coefficient     DIISMaxC        ....  10.000
 MO-DIIS                CNVKDIIS        .... off
 Trust-Rad. Augm. Hess. CNVTRAH         .... auto
   Auto Start mean grad. ratio tolernc. ....  1.125000
   Auto Start start iteration           ....    50
   Auto Start num. interpolation iter.  ....    10
   Max. Number of Micro iterations      ....    24
   Max. Number of Macro iterations      .... Maxiter - #DIIS iter
   Number of Davidson start vectors     ....     2
   Converg. threshold    (grad. norm)   ....   2.000e-06
   Grad. Scal. Fac. for Micro threshold ....   0.100
   Minimum threshold for Micro iter.    ....   1.000e-02
   NR start threshold (gradient norm)   ....   1.000e-04
   Initial trust radius                 ....   0.400
   Minimum AH scaling param. (alpha)    ....   1.000
   Maximum AH scaling param. (alpha)    .... 1000.000
   Quad. conv. algorithm                .... NR
   White noise on init. David. guess    .... on
   Maximum white noise                  ....   0.010
   Pseudo random numbers                .... off
   Inactive MOs                         .... canonical
   Orbital update algorithm             .... Taylor
   Preconditioner                       .... Diag
   Full preconditioner red. dimension   ....   250
 SOSCF                  CNVSOSCF        .... on
   Start iteration      SOSCFMaxIt      ....   150
   Startup grad/error   SOSCFStart      ....  0.003300
   Hessian update       SOSCFHessUp     .... L-BFGS
 Level Shifting         CNVShift        .... on
   Level shift para.    LevelShift      ....    0.2500
   Turn off err/grad.   ShiftErr        ....    0.0010
 Zerner damping         CNVZerner       .... off
 Static damping         CNVDamp         .... on
   Fraction old density DampFac         ....    0.7000
   Max. Damping (<1)    DampMax         ....    0.9800
   Min. Damping (>=0)   DampMin         ....    0.0000
   Turn off err/grad.   DampErr         ....    0.1000

SCF Procedure:
 Maximum # iterations   MaxIter         ....   125
 SCF integral mode      SCFMode         .... Direct
   Integral package                     .... SHARK and LIBINT hybrid scheme
 Reset frequency        DirectResetFreq ....    20
 Integral Threshold     Thresh          ....  1.000e-12 Eh
 Primitive CutOff       TCut            ....  1.000e-14 Eh

Convergence Tolerance:
 Convergence Check Mode ConvCheckMode   .... Total+1el-Energy
 Convergence forced     ConvForced      .... 1
 Energy Change          TolE            ....  1.000e-09 Eh
 1-El. energy change                    ....  1.000e-06 Eh
 Orbital Gradient       TolG            ....  2.000e-06
 Orbital Rotation angle TolX            ....  2.000e-06
 DIIS Error             TolErr          ....  1.000e-08

------------------------------
INITIAL GUESS: MODEL POTENTIAL
------------------------------
Loading Hartree-Fock densities                     ... done
Calculating cut-offs                               ... done
Initializing the effective Hamiltonian             ... done
Setting up the integral package (SHARK)            ... done
Starting the Coulomb interaction                   ... done (   0.0 sec)
Making the grid                                    ... done (   0.0 sec)
Mapping shells                                     ... done
Starting the XC term evaluation                    ... done (   0.0 sec)
Transforming the Hamiltonian                       ... done (   0.0 sec)
Diagonalizing the Hamiltonian                      ... done (   0.0 sec)
Back transforming the eigenvectors                 ... done (   0.0 sec)
Now organizing SCF variables                       ... done
                      ------------------
                      INITIAL GUESS DONE (   0.1 sec)
                      ------------------
             **** ENERGY FILE WAS UPDATED (AR3LD_3.2_4.8_4.8.en.tmp) ****
Finished Guess after   0.1 sec
Maximum memory used throughout the entire GUESS-calculation: 6.6 MB

-------------------------------------------------------------------------------------------
                                      ORCA LEAN-SCF
                              memory conserving SCF solver
-------------------------------------------------------------------------------------------

----------------------------------------D-I-I-S--------------------------------------------
Iteration    Energy (Eh)           Delta-E    RMSDP     MaxDP     DIISErr   Damp  Time(sec)
-------------------------------------------------------------------------------------------
               ***  Starting incremental Fock matrix formation  ***
    1    -1580.3820087941217025     0.00e+00  1.04e-03  1.74e-02  9.30e-02  0.700   0.4
    2    -1580.3870960181936880    -5.09e-03  8.11e-04  1.27e-02  6.66e-02  0.700   0.3
                               ***Turning on AO-DIIS***
    3    -1580.3907846909119144    -3.69e-03  6.43e-04  9.27e-03  4.74e-02  0.700   0.4
    4    -1580.3934327012943868    -2.65e-03  1.58e-03  2.18e-02  3.33e-02  0.000   0.3
                              *** Initializing SOSCF ***
---------------------------------------S-O-S-C-F--------------------------------------
Iteration    Energy (Eh)           Delta-E    RMSDP     MaxDP     MaxGrad    Time(sec)
--------------------------------------------------------------------------------------
    5    -1580.3998767823745766    -6.44e-03  8.05e-05  9.59e-04  1.04e-03     0.3
               *** Restarting incremental Fock matrix formation ***
    6    -1580.3998847783893780    -8.00e-06  3.92e-05  5.28e-04  2.44e-04     0.4
    7    -1580.3998862371231553    -1.46e-06  1.44e-05  1.71e-04  5.85e-05     0.3
    8    -1580.3998863294918920    -9.24e-08  7.79e-07  1.47e-05  8.55e-06     0.3
    9    -1580.3998863299220830    -4.30e-10  1.39e-07  2.05e-06  1.10e-06     0.2
                 **** Energy Check signals convergence ****

               *****************************************************
               *                     SUCCESS                       *
               *           SCF CONVERGED AFTER   9 CYCLES          *
               *****************************************************

             **** ENERGY FILE WAS UPDATED (AR3LD_3.2_4.8_4.8.en.tmp) ****

----------------
TOTAL SCF ENERGY
----------------

Total Energy       :      -1580.39988632992208 Eh          -43004.86723 eV

Components:
Nuclear Repulsion  :        125.01811546087498 Eh            3401.91587 eV
Electronic Energy  :      -1705.41800179079701 Eh          -46406.78310 eV
One Electron Energy:      -2434.65451843679239 Eh          -66250.31755 eV
Two Electron Energy:        729.23651664599538 Eh           19843.53444 eV

Virial components:
Potential Energy   :      -3160.84045578185123 Eh          -86010.84151 eV
Kinetic Energy     :       1580.44056945192915 Eh           43005.97428 eV
Virial Ratio       :          1.99997425836644

---------------
SCF CONVERGENCE
---------------

  Last Energy change         ...    4.3019e-10  Tolerance :   1.0000e-09
  Last MAX-Density change    ...    2.0506e-06  Tolerance :   1.0000e-08
  Last RMS-Density change    ...    1.3895e-07  Tolerance :   1.0000e-09
  Last DIIS Error            ...    1.0429e-03  Tolerance :   1.0000e-08
  Last Orbital Gradient      ...    1.1006e-06  Tolerance :   2.0000e-06
  Last Orbital Rotation      ...    1.1215e-06  Tolerance :   2.0000e-06


----------------
ORBITAL ENERGIES
----------------

  NO   OCC          E(Eh)            E(eV) 
   0   2.0000    -118.610644     -3227.5597 
   1   2.0000    -118.608906     -3227.5124 
   2   2.0000    -118.608906     -3227.5124 
   3   2.0000     -12.322829      -335.3212 
   4   2.0000     -12.321295      -335.2795 
   5   2.0000     -12.321282      -335.2791 
   6   2.0000      -9.571409      -260.4513 
   7   2.0000      -9.571406      -260.4512 
   8   2.0000      -9.571406      -260.4512 
   9   2.0000      -9.569874      -260.4095 
  10   2.0000      -9.569871      -260.4094 
  11   2.0000      -9.569866      -260.4093 
  12   2.0000      -9.569864      -260.4093 
  13   2.0000      -9.569864      -260.4092 
  14   2.0000      -9.569863      -260.4092 
  15   2.0000      -1.281729       -34.8776 
  16   2.0000      -1.278922       -34.8012 
  17   2.0000      -1.275230       -34.7008 
  18   2.0000      -0.612902       -16.6779 
  19   2.0000      -0.595686       -16.2094 
  20   2.0000      -0.595158       -16.1951 
  21   2.0000      -0.592354       -16.1188 
  22   2.0000      -0.592277       -16.1167 
  23   2.0000      -0.591773       -16.1030 
  24   2.0000      -0.588067       -16.0021 
  25   2.0000      -0.588008       -16.0005 
  26   2.0000      -0.571350       -15.5472 
  27   0.0000       0.119416         3.2495 
  28   0.0000       0.125156         3.4057 
  29   0.0000       0.129715         3.5297 
  30   0.0000       0.134426         3.6579 
  31   0.0000       0.153097         4.1660 
  32   0.0000       0.165090         4.4923 
  33   0.0000       0.165371         4.5000 
  34   0.0000       0.176706         4.8084 
  35   0.0000       0.183844         5.0027 
  36   0.0000       0.200091         5.4448 
  37   0.0000       0.260393         7.0856 
*Only the first 10 virtual orbitals were printed.

                    ********************************
                    * MULLIKEN POPULATION ANALYSIS *
                    ********************************

-------------------------
MULLIKEN FRAGMENT CHARGES
-------------------------
 Fragment   0 :  -0.000103
 Fragment   1 :   0.000052
 Fragment   2 :   0.000052
Sum of fragment charges:    0.0000000

---------------------------------
MULLIKEN FRAGMENT OVERLAP CHARGES
---------------------------------
                  0          1          2    
      0      17.998376   0.001727   0.001727
      1       0.001727  18.013200  -0.028231
      2       0.001727  -0.028231  18.013200

-----------------------
MULLIKEN ATOMIC CHARGES
-----------------------
   0 Ar:   -0.000103
   1 Ar:    0.000052
   2 Ar:    0.000052
Sum of atomic charges:    0.0000000

--------------------------------
MULLIKEN REDUCED ORBITAL CHARGES
--------------------------------
  0 Ars       :     5.999946  s :     5.999946
      pz      :     4.000001  p :    12.000140
      px      :     4.000139
      py      :     4.000000
      dz2     :     0.000004  d :     0.000017
      dxz     :     0.000000
      dyz     :     0.000000
      dx2y2   :     0.000007
      dxy     :     0.000006

  1 Ars       :     5.997991  s :     5.997991
      pz      :     3.999906  p :    12.001637
      px      :     4.000100
      py      :     4.001632
      dz2     :     0.000030  d :     0.000320
      dxz     :     0.000010
      dyz     :     0.000083
      dx2y2   :     0.000101
      dxy     :     0.000096

  2 Ars       :     5.997991  s :     5.997991
      pz      :     3.999906  p :    12.001637
      px      :     4.000135
      py      :     4.001596
      dz2     :     0.000030  d :     0.000320
      dxz     :     0.000010
      dyz     :     0.000083
      dx2y2   :     0.000097
      dxy     :     0.000100



                     *******************************
                     * LOEWDIN POPULATION ANALYSIS *
                     *******************************

------------------------
LOEWDIN FRAGMENT CHARGES
------------------------
 Fragment   0 :   0.000337
 Fragment   1 :  -0.000168
 Fragment   2 :  -0.000168

----------------------------
LOEWDIN FRAGMENT BOND ORDERS
----------------------------
                  0          1          2    
      0      17.999663   0.003988   0.003988
      1       0.003988  18.000168   0.135547
      2       0.003988   0.135547  18.000168

----------------------
LOEWDIN ATOMIC CHARGES
----------------------
   0 Ar:    0.000337
   1 Ar:   -0.000168
   2 Ar:   -0.000168

-------------------------------
LOEWDIN REDUCED ORBITAL CHARGES
-------------------------------
  0 Ars       :     5.999608  s :     5.999608
      pz      :     3.999993  p :    12.000032
      px      :     3.999999
      py      :     4.000040
      dz2     :     0.000005  d :     0.000023
      dxz     :     0.000001
      dyz     :     0.000000
      dx2y2   :     0.000009
      dxy     :     0.000008

  1 Ars       :     5.986483  s :     5.986483
      pz      :     3.999801  p :    12.008776
      px      :     4.001214
      py      :     4.007761
      dz2     :     0.001138  d :     0.004910
      dxz     :     0.000023
      dyz     :     0.000179
      dx2y2   :     0.002117
      dxy     :     0.001452

  2 Ars       :     5.986483  s :     5.986483
      pz      :     3.999801  p :    12.008776
      px      :     4.000779
      py      :     4.008197
      dz2     :     0.001138  d :     0.004910
      dxz     :     0.000023
      dyz     :     0.000180
      dx2y2   :     0.002117
      dxy     :     0.001452



                      *****************************
                      * MAYER POPULATION ANALYSIS *
                      *****************************

  NA   - Mulliken gross atomic population
  ZA   - Total nuclear charge
  QA   - Mulliken gross atomic charge
  VA   - Mayer's total valence
  BVA  - Mayer's bonded valence
  FA   - Mayer's free valence

  ATOM       NA         ZA         QA         VA         BVA        FA
  0 Ar    18.0001    18.0000    -0.0001     0.0037     0.0037    -0.0000
  1 Ar    17.9999    18.0000     0.0001    -0.0028    -0.0028     0.0000
  2 Ar    17.9999    18.0000     0.0001    -0.0028    -0.0028     0.0000

  Mayer bond orders larger than 0.100000
  => no bond orders to print

-------
TIMINGS
-------

Total SCF time: 0 days 0 hours 0 min 2 sec 

Total time                  ....       2.789 sec
Sum of individual times     ....       2.780 sec  ( 99.7%)

SCF preparation             ....       0.039 sec  (  1.4%)
Fock matrix formation       ....       2.718 sec  ( 97.4%)
  Startup                   ....       0.001 sec  (  0.0% of F)
  Coulomb+Exchange Fock     ....       2.714 sec  ( 99.9% of F)
Diagonalization             ....       0.000 sec  (  0.0%)
Density matrix formation    ....       0.003 sec  (  0.1%)
Total Energy calculation    ....       0.001 sec  (  0.0%)
Population analysis         ....       0.002 sec  (  0.1%)
Orbital Transformation      ....       0.003 sec  (  0.1%)
Orbital Orthonormalization  ....       0.000 sec  (  0.0%)
DIIS solution               ....       0.010 sec  (  0.4%)
SOSCF solution              ....       0.004 sec  (  0.2%)
Finished LeanSCF after   2.8 sec

Maximum memory used throughout the entire LEANSCF-calculation: 8.5 MB

------------------------------------------------------------------------------
                         ORCA PROPERTY INTEGRAL CALCULATIONS
------------------------------------------------------------------------------

GBWName                                   ... AR3LD_3.2_4.8_4.8.gbw
Number of atoms                           ...      3
Number of basis functions                 ...    150
Max core memory                           ...   1024 MB

Dipole integrals                          ... YES
Quadrupole integrals                      ...  NO
Linear momentum integrals                 ... YES
Angular momentum integrals                ... YES
Higher moments length integrals           ...  NO
Higher moments velocity integrals         ...  NO
Kinetic energy integrals                  ...  NO
GIAO right hand sides                     ...  NO
GIAO dipole derivative integrals          ...  NO
SOC integrals                             ...  NO
EPR diamagnetic integrals (GIAO)          ...  NO
EPR gauge integrals                       ...  NO
Field gradient integrals                  ...  NO (   0 nuclei)
Spin-dipole/Fermi contact integrals       ...  NO (   0 nuclei)
Contact density integrals                 ...  NO (   0 nuclei)
Nucleus-orbit integrals                   ...  NO (   0 nuclei)
Geometric perturbations                   ...  NO (   3 nuclei)

Choice of electric origin   ... Center of mass
Position of electric origin ... (  5.3752,  1.9004,  0.0000) 
Choice of magnetic origin   ... GIAO
Position of magnetic origin ... (  0.0000,  0.0000,  0.0000) 

Calculating integrals                     ... Electric Dipole (Length)     done (  0.0 sec)
Calculating integrals                     ... Linear Momentum              done (  0.0 sec)
Calculating integrals                     ... Angular Momentum  (ElOri)    done (  0.0 sec)

Property integrals calculated in   0.0 sec

Maximum memory used throughout the entire PROPINT-calculation: 6.7 MB


--------------------------------------------------------------------------------
                             ORCA-MATRIX DRIVEN CI
--------------------------------------------------------------------------------


Wavefunction type
-----------------
Correlation treatment                      ...      CCSD     
Single excitations                         ... ON
Orbital optimization                       ... OFF
Calculation of Z vector                    ... OFF
Calculation of Brueckner orbitals          ... OFF
Perturbative triple excitations            ... OFF
Calculation of F12 correction              ... OFF
Frozen core treatment                      ... chemical core (30 el)
Reference Wavefunction                     ... RHF
  Internal Orbitals:    15 ...   26 ( 12 MO's/ 24 electrons)
  Virtual  Orbitals:    27 ...   80 ( 54 MO's              )
Number of AO's                             ...     81
Number of electrons                        ...     54
Number of correlated electrons             ...     24

Algorithmic settings
--------------------
Integral transformation                    ... All integrals via the RI transformation
K(C) Formation                             ... RI-DLPNO
   PNO-Integral Storage                    ... ON DISK
   PNO occupation number cut-off           ... 3.330e-07
   Singles PNO occupation number cut-off   ... 9.990e-09
   PNO Mulliken prescreening cut-off       ... 1.000e-03
   Domain cut-off (Mulliken population)    ... 1.000e-03
   PNO Normalization                       ...    1
Maximum number of iterations               ...        50
Convergence tolerance (max. residuum)      ... 1.000e-06
Level shift for amplitude update           ... 2.000e-01
Maximum number of DIIS vectors             ...         7
DIIS turned on at iteration                ...         0
Damping before turning on DIIS             ...     0.500
Damping after turning on DIIS              ...     0.000
Pair specific amplitude update             ... OFF
Natural orbital iterations                 ... OFF
Perturbative natural orbital generation    ... OFF
Printlevel                                 ... 2

Singles Fock matrix elements calculated using PNOs.

Memory handling:
----------------
Maximum memory for working arrays          ...    512 MB
Data storage in matrix containers          ... UNCOMPRESSED
Data type for integral storage             ... DOUBLE
In-Core Storage of quantities:
   Amplitudes+Sigma Vector      ... NO
   J+K operators                ... NO
   DIIS vectors                 ... NO
   3-external integrals         ... NO
   4-external integrals         ... NO

Localization treatment:
-----------------------
Localization option                        ...    2
Localization threshhold                    ... -1.0e+00
Using relative localization threshhold     ... 1.0e-08
Neglect threshold for strong pairs         ... 1.000e-05 Eh
Prescreening threshold for very weak pairs ... 1.000e-07 Eh
Using randomized seed for localization     ... on

Initializing the integral package          ... done
Localizing the valence orbitals
Localizing the valence orbitals
Localization sum:   274.948231484 
------------------------------------------------------------------------------
                           ORCA ORBITAL LOCALIZATION
------------------------------------------------------------------------------

Input orbitals are from                  ... AR3LD_3.2_4.8_4.8.proc0.gbw
Output orbitals are to                   ... AR3LD_3.2_4.8_4.8.proc0.loc
Max. number of iterations                ... 128
Localizations seeded randomly            ... on
Convergence tolerance                    ... 2.000e-07
Using relative localization threshhold   ... 1.000e-08
Threshold for strong local MOs           ... 9.500e-01
Threshold for bond MOs                   ... 8.500e-01
Operator                                 ... 0
Orbital range for localization           ... 15 to 26
Localization criterion                   ... FOSTER-BOYS
Doing the dipole integrals     ... o.k.
Entering Jacobi type localization:
Using Cholesky decomposition as initial guess.
Initial value of the localization sum :   268.176299
ITERATION   0 : L=  274.9254414797 DL=  6.75e+00 (MAX-T)=  45.000 
ITERATION   1 : L=  274.9321971511 DL=  6.76e-03 (MAX-T)=   2.603 
ITERATION   2 : L=  274.9326562169 DL=  4.59e-04 (MAX-T)=   0.458 
ITERATION   3 : L=  274.9331770646 DL=  5.21e-04 (MAX-T)=   0.441 
ITERATION   4 : L=  274.9335742798 DL=  3.97e-04 (MAX-T)=   0.460 
ITERATION   5 : L=  274.9340184760 DL=  4.44e-04 (MAX-T)=   0.433 
ITERATION   6 : L=  274.9346749087 DL=  6.56e-04 (MAX-T)=   0.452 
ITERATION   7 : L=  274.9352047132 DL=  5.30e-04 (MAX-T)=   0.486 
ITERATION   8 : L=  274.9356752139 DL=  4.71e-04 (MAX-T)=   0.598 
ITERATION   9 : L=  274.9362735110 DL=  5.98e-04 (MAX-T)=   0.588 
ITERATION  10 : L=  274.9368867839 DL=  6.13e-04 (MAX-T)=   0.592 
ITERATION  11 : L=  274.9372800507 DL=  3.93e-04 (MAX-T)=   0.568 
ITERATION  12 : L=  274.9379548688 DL=  6.75e-04 (MAX-T)=   0.583 
ITERATION  13 : L=  274.9384947410 DL=  5.40e-04 (MAX-T)=   0.465 
ITERATION  14 : L=  274.9389872435 DL=  4.93e-04 (MAX-T)=   0.624 
ITERATION  15 : L=  274.9396962284 DL=  7.09e-04 (MAX-T)=   0.607 
ITERATION  16 : L=  274.9401457911 DL=  4.50e-04 (MAX-T)=   0.598 
ITERATION  17 : L=  274.9406278913 DL=  4.82e-04 (MAX-T)=   0.585 
ITERATION  18 : L=  274.9411845388 DL=  5.57e-04 (MAX-T)=   0.480 
ITERATION  19 : L=  274.9416432570 DL=  4.59e-04 (MAX-T)=   0.474 
ITERATION  20 : L=  274.9421700787 DL=  5.27e-04 (MAX-T)=   0.568 
ITERATION  21 : L=  274.9426046433 DL=  4.35e-04 (MAX-T)=   0.532 
ITERATION  22 : L=  274.9429751559 DL=  3.71e-04 (MAX-T)=   0.429 
ITERATION  23 : L=  274.9433665827 DL=  3.91e-04 (MAX-T)=   0.537 
ITERATION  24 : L=  274.9437498393 DL=  3.83e-04 (MAX-T)=   0.535 
ITERATION  25 : L=  274.9440724834 DL=  3.23e-04 (MAX-T)=   0.448 
ITERATION  26 : L=  274.9444813698 DL=  4.09e-04 (MAX-T)=   0.446 
ITERATION  27 : L=  274.9448406276 DL=  3.59e-04 (MAX-T)=   0.488 
ITERATION  28 : L=  274.9451712179 DL=  3.31e-04 (MAX-T)=   0.401 
ITERATION  29 : L=  274.9453975258 DL=  2.26e-04 (MAX-T)=   0.422 
ITERATION  30 : L=  274.9455444391 DL=  1.47e-04 (MAX-T)=   0.393 
ITERATION  31 : L=  274.9457476154 DL=  2.03e-04 (MAX-T)=   0.419 
ITERATION  32 : L=  274.9459571272 DL=  2.10e-04 (MAX-T)=   0.394 
ITERATION  33 : L=  274.9461456308 DL=  1.89e-04 (MAX-T)=   0.295 
ITERATION  34 : L=  274.9463381875 DL=  1.93e-04 (MAX-T)=   0.372 
ITERATION  35 : L=  274.9465443276 DL=  2.06e-04 (MAX-T)=   0.358 
ITERATION  36 : L=  274.9467225385 DL=  1.78e-04 (MAX-T)=   0.305 
ITERATION  37 : L=  274.9468257771 DL=  1.03e-04 (MAX-T)=   0.279 
ITERATION  38 : L=  274.9469450714 DL=  1.19e-04 (MAX-T)=   0.280 
ITERATION  39 : L=  274.9470804713 DL=  1.35e-04 (MAX-T)=   0.242 
ITERATION  40 : L=  274.9471552307 DL=  7.48e-05 (MAX-T)=   0.258 
ITERATION  41 : L=  274.9472752791 DL=  1.20e-04 (MAX-T)=   0.268 
ITERATION  42 : L=  274.9473612325 DL=  8.60e-05 (MAX-T)=   0.195 
ITERATION  43 : L=  274.9474443488 DL=  8.31e-05 (MAX-T)=   0.247 
ITERATION  44 : L=  274.9475271298 DL=  8.28e-05 (MAX-T)=   0.204 
ITERATION  45 : L=  274.9476032931 DL=  7.62e-05 (MAX-T)=   0.225 
ITERATION  46 : L=  274.9476793349 DL=  7.60e-05 (MAX-T)=   0.202 
ITERATION  47 : L=  274.9477349813 DL=  5.56e-05 (MAX-T)=   0.175 
ITERATION  48 : L=  274.9477807886 DL=  4.58e-05 (MAX-T)=   0.176 
ITERATION  49 : L=  274.9478192601 DL=  3.85e-05 (MAX-T)=   0.162 
ITERATION  50 : L=  274.9478552027 DL=  3.59e-05 (MAX-T)=   0.140 
ITERATION  51 : L=  274.9478940868 DL=  3.89e-05 (MAX-T)=   0.153 
ITERATION  52 : L=  274.9479271816 DL=  3.31e-05 (MAX-T)=   0.139 
ITERATION  53 : L=  274.9479605511 DL=  3.34e-05 (MAX-T)=   0.142 
ITERATION  54 : L=  274.9479873074 DL=  2.68e-05 (MAX-T)=   0.131 
ITERATION  55 : L=  274.9480156300 DL=  2.83e-05 (MAX-T)=   0.128 
ITERATION  56 : L=  274.9480349339 DL=  1.93e-05 (MAX-T)=   0.108 
ITERATION  57 : L=  274.9480542257 DL=  1.93e-05 (MAX-T)=   0.116 
ITERATION  58 : L=  274.9480795776 DL=  2.54e-05 (MAX-T)=   0.110 
ITERATION  59 : L=  274.9480948431 DL=  1.53e-05 (MAX-T)=   0.092 
ITERATION  60 : L=  274.9481110387 DL=  1.62e-05 (MAX-T)=   0.097 
ITERATION  61 : L=  274.9481238897 DL=  1.29e-05 (MAX-T)=   0.081 
ITERATION  62 : L=  274.9481340943 DL=  1.02e-05 (MAX-T)=   0.094 
ITERATION  63 : L=  274.9481467114 DL=  1.26e-05 (MAX-T)=   0.092 
ITERATION  64 : L=  274.9481577403 DL=  1.10e-05 (MAX-T)=   0.072 
ITERATION  65 : L=  274.9481683096 DL=  1.06e-05 (MAX-T)=   0.075 
ITERATION  66 : L=  274.9481748446 DL=  6.53e-06 (MAX-T)=   0.065 
ITERATION  67 : L=  274.9481827849 DL=  7.94e-06 (MAX-T)=   0.072 
ITERATION  68 : L=  274.9481893030 DL=  6.52e-06 (MAX-T)=   0.063 
ITERATION  69 : L=  274.9481951480 DL=  5.85e-06 (MAX-T)=   0.056 
ITERATION  70 : L=  274.9482004176 DL=  5.27e-06 (MAX-T)=   0.053 
ITERATION  71 : L=  274.9482065758 DL=  6.16e-06 (MAX-T)=   0.057 
ITERATION  72 : L=  274.9482113091 DL=  4.73e-06 (MAX-T)=   0.050 
ITERATION  73 : L=  274.9482171185 DL=  5.81e-06 (MAX-T)=   0.049 
ITERATION  74 : L=  274.9482208396 DL=  3.72e-06 (MAX-T)=   0.043 
ITERATION  75 : L=  274.9482249060 DL=  4.07e-06 (MAX-T)=   0.042 
ITERATION  76 : L=  274.9482287353 DL=  3.83e-06 (MAX-T)=   0.041 
ITERATION  77 : L=  274.9482314839 DL=  2.75e-06 (MAX-T)=   0.038 
LOCALIZATION SUM CONVERGED


--------------------------------------------------------------------------------
                    LOCALIZED MOLECULAR ORBITAL COMPOSITIONS
--------------------------------------------------------------------------------

The Mulliken populations for each LMO on each atom are computed
The LMO`s will be ordered according to atom index and type
  (A) Strongly localized MO`s have populations of >=0.950 on one atom
  (B) Two center bond orbitals have populations of >=0.850 on two atoms
  (C) Other MO`s are considered to be `delocalized`

FOUND  -  12 strongly local MO`s
       -   0 two center bond MO`s
       -   0 significantly delocalized MO`s

Rather strongly localized orbitals:
MO  26:   2Ar -   1.000125
MO  25:   2Ar -   1.000220
MO  24:   2Ar -   1.000243
MO  23:   2Ar -   1.000915
MO  22:   1Ar -   1.000298
MO  21:   1Ar -   1.000086
MO  20:   1Ar -   1.000206
MO  19:   1Ar -   1.000914
MO  18:   0Ar -   0.999823
MO  17:   0Ar -   0.999934
MO  16:   0Ar -   0.999931
MO  15:   0Ar -   0.999878
Localized MO's were stored in: AR3LD_3.2_4.8_4.8.proc0.loc

Localizing the core orbitals
Localization sum:   335.660302799 
------------------------------------------------------------------------------
                           ORCA ORBITAL LOCALIZATION
------------------------------------------------------------------------------

Input orbitals are from                  ... AR3LD_3.2_4.8_4.8.proc0.loc
Output orbitals are to                   ... AR3LD_3.2_4.8_4.8.proc0.loc
Max. number of iterations                ... 128
Localizations seeded randomly            ... on
Convergence tolerance                    ... 2.000e-07
Using relative localization threshhold   ... 1.000e-08
Threshold for strong local MOs           ... 9.500e-01
Threshold for bond MOs                   ... 8.500e-01
Operator                                 ... 0
Orbital range for localization           ... 0 to 14
Localization criterion                   ... FOSTER-BOYS
Doing the dipole integrals     ... o.k.
Entering Jacobi type localization:
Using Cholesky decomposition as initial guess.
Initial value of the localization sum :   335.203838
ITERATION   0 : L=  335.6568098968 DL=  4.53e-01 (MAX-T)=  45.000 
ITERATION   1 : L=  335.6602987481 DL=  3.49e-03 (MAX-T)=   6.947 
ITERATION   2 : L=  335.6603027579 DL=  4.01e-06 (MAX-T)=   0.248 
ITERATION   3 : L=  335.6603027988 DL=  4.09e-08 (MAX-T)=   0.026 
LOCALIZATION SUM CONVERGED


--------------------------------------------------------------------------------
                    LOCALIZED MOLECULAR ORBITAL COMPOSITIONS
--------------------------------------------------------------------------------

The Mulliken populations for each LMO on each atom are computed
The LMO`s will be ordered according to atom index and type
  (A) Strongly localized MO`s have populations of >=0.950 on one atom
  (B) Two center bond orbitals have populations of >=0.850 on two atoms
  (C) Other MO`s are considered to be `delocalized`

FOUND  -  15 strongly local MO`s
       -   0 two center bond MO`s
       -   0 significantly delocalized MO`s

Rather strongly localized orbitals:
MO  14:   2Ar -   1.000013
MO  13:   2Ar -   1.000027
MO  12:   2Ar -   1.000020
MO  11:   2Ar -   1.000000
MO  10:   2Ar -   1.000015
MO   9:   1Ar -   1.000011
MO   8:   1Ar -   1.000022
MO   7:   1Ar -   1.000021
MO   6:   1Ar -   1.000000
MO   5:   1Ar -   1.000022
MO   4:   0Ar -   1.000001
MO   3:   0Ar -   1.000002
MO   2:   0Ar -   1.000002
MO   1:   0Ar -   1.000000
MO   0:   0Ar -   1.000001
Localized MO's were stored in: AR3LD_3.2_4.8_4.8.proc0.loc

Warning: reference  - re-canonicalizations have been set to INT 1 VIRT 1
Warning: internal orbitals are localized - no re-canonicalization of internal orbitals
Warning: UsePNO is turned on - no re-canonicalization of internal and virtual orbitals
Fock densities were made 
Making Fock matrix and reference energy:

--------------------------
CLOSED-SHELL FOCK OPERATOR
--------------------------

Time needed for Fock operator              ...            0.600 sec
Reference energy                           ...  -1580.399886330

--------------
DLPNO SETTINGS (2015 fully linear scaling implementation)
--------------

TCutMKN:           1.000e-03
TCutPAO:           1.000e-03
TCutPNO:           3.330e-07
TCutPNOSingles:    9.990e-09
TCutEN:            9.700e-01
TCutPAOExt:        1.000e-01
TCutPairs:         1.000e-05
TCutPre:           1.000e-07
TCutOSV:           1.000e-06
TCutDOij:          1.000e-05
TCutDO:            1.000e-02
TCutC:             1.000e-04
TCutCPAO:          1.000e-03
TCutCMO:           1.000e-03
TScaleDOMP2PreScr: 2.000e+00
TScaleMKNMP2PreScr:1.000e+01
TScalePNOMP2PreScr:1.000e+00
PAO overlap thresh 1.000e-08
Using PNOs for Singles Fock computation
Use new domains
Use fully linear algorithm

--------------------------
Mulliken population of the LMOs            ... ok
Performing proximity check                 ... No problems found
Calculating differential overlap integrals ... ok

------------------------
PRESCREENING OF HF PAIRS
------------------------

   .... Finished loop over pairs

                  ============================================
                    30 of   78 PAIRS WERE SKIPPED as HF PAIRS
                  ============================================

Total time spent in skipping HF pairs                 ...     0.000 sec
--------------------------
ELECTRON PAIR PRESCREENING
--------------------------

Dipole-based pair screening          .... used

   TCutDOij = 1.000000e-05
   TCutPre  = 1.000000e-07
   .... Finished loop over pairs
Total time spent in the prescreening                  ...     0.000 sec
sum of pair energies estimated for screened out pairs ...       0.000000000000 Eh
Thresholds for map construction and integral transformation for crude MP2:
   TCutMKN                    ...     1.0e-02
   TCutDO                     ...     2.0e-02
   TCutPairs                  ...     1.0e-05
   TCutPNO_CrudeMP2           ...     3.3e-07
   TCutPNOSingles_CrudeMP2    ...     1.0e-08
--------------------------------
LOCAL RI TRANSFORMATION (IAVPAO)
--------------------------------

Orbital window:      15 to 26
Number of PAOs:      81
Basis functions:     81 (33 shells)
Aux. functions:     276 (84 shells)
Use SHARK:           on
Have SHARK:         yes

Processing maps (0.0 sec)
Average map sizes:
   Aux shells -> MOs              12.0
   Aux shells -> PAOs             81.0
   MOs        -> AO shells        25.7
   PAOs       -> AO shells        33.0

Calculating integrals (0.1 sec, 2.050 MB)
Sorting integrals (0.0 sec, 2.047 MB)
Total time for the integral transformation: 0.1 sec
--------------------------------
INITIAL GUESS AND PNO GENERATION
--------------------------------

Populations of internal orbitals onto Fragments:
  15:      1.000    0.000    0.000  assigned to fragment   1
  16:      1.000    0.000    0.000  assigned to fragment   1
  17:      1.000    0.000    0.000  assigned to fragment   1
  18:      1.000    0.000    0.000  assigned to fragment   1
  19:      0.000    1.001    0.001  assigned to fragment   2
  20:      0.000    1.000    0.000  assigned to fragment   2
  21:      0.000    1.000    0.000  assigned to fragment   2
  22:      0.000    1.000    0.000  assigned to fragment   2
  23:      0.000    0.001    1.001  assigned to fragment   3
  24:      0.000    0.000    1.000  assigned to fragment   3
  25:      0.000    0.000    1.000  assigned to fragment   3
  26:      0.000    0.000    1.000  assigned to fragment   3

Summary assignment:
   4 orbitals assigned to fragment   1
   4 orbitals assigned to fragment   2
   4 orbitals assigned to fragment   3

PNO truncation parameters                   .... 
    PAOOverlapThresh   =        1.000e-08

Pair selection                          .... 
  modified with fragment specific keywords
  Pairs will be selected according to these
  intra(inter)fragment cutoffs
  1 <-> 1
    Intrafragment pairs 1 <-> 1 neglected for CCSD
  1 <-> 2
    TCutPairs          =        1.000e-05
    TCutPNO            =        3.330e-07
    TCutMKN            =        1.000e-02
    TCutDO             =        2.000e-02
    TCutPNOSingles     =        9.990e-09
    TCutMP2Pairs       =        1.000e-06
  1 <-> 3
    TCutPairs          =        1.000e-05
    TCutPNO            =        3.330e-07
    TCutMKN            =        1.000e-02
    TCutDO             =        2.000e-02
    TCutPNOSingles     =        9.990e-09
    TCutMP2Pairs       =        1.000e-06
  2 <-> 2
    Intrafragment pairs 2 <-> 2 neglected for CCSD
  2 <-> 3
    TCutPairs          =        1.000e-05
    TCutPNO            =        3.330e-07
    TCutMKN            =        1.000e-02
    TCutDO             =        2.000e-02
    TCutPNOSingles     =        9.990e-09
    TCutMP2Pairs       =        1.000e-06
  3 <-> 3
    Intrafragment pairs 3 <-> 3 neglected for CCSD

Type of local MP2 treatment                 .... semi-local MP2
Strategy for PNO selection                  .... occupation number selection
Pair density normalization                  .... MP2 norm
Spin component scaling                      .... not used

   .... Finished loop over pairs
Making pair pair interaction lists          ... done

                       ===========================
                         23 OF   60 PAIRS ARE KEPT CCSD PAIRS
                         25 OF   60 PAIRS ARE KEPT MP2 PAIRS
                         12 OF   60 PAIRS ARE SKIPPED
                       ===========================

Total time spent in the initial guess                 ...     0.092 sec
SL-MP2 correlation energy (all non-screened pairs)    ...      -0.001904267253 Eh

Initial PNO correlation energy                        ...      -0.001705852149 Eh
sum of pair energies prescreened and skipped MP2 pairs...       0.000000000000 Eh
sum of pair energies of crude MP2 skipped pairs only  ...       0.000000000000 Eh
sum of MP2 pair energies for pairs that were not kept ...      -0.000151698462 Eh
sum of PNO error estimates for the kept pairs         ...      -0.000046716643 Eh
                                                          --------------------
sum of all corrections                                         -0.000198415104
Initial total correlation energy                               -0.001904267253
Thresholds for map construction and integral transformation for fine MP2 and CCSD(T) calculation:
   TCutMKN   ...     1.0e-03
   TCutDO    ...     1.0e-02
   TCutPairs ...     1.0e-05
   TCutCMO   ...     1.0e-03
   TCutCPAO  ...     1.0e-03

--------------------------------
LOCAL RI TRANSFORMATION (IAVPAO)
--------------------------------

Orbital window:      15 to 26
Number of PAOs:      81
Basis functions:     81 (33 shells)
Aux. functions:     276 (84 shells)
Use SHARK:           on
Have SHARK:         yes

Processing maps (0.0 sec)
Average map sizes:
   Aux shells -> MOs              12.0
   Aux shells -> PAOs             81.0
   MOs        -> AO shells        25.7
   PAOs       -> AO shells        33.0

Calculating integrals (0.1 sec, 2.050 MB)
Sorting integrals (0.0 sec, 2.047 MB)
Total time for the integral transformation: 0.1 sec
--------------------------------
INITIAL GUESS AND PNO GENERATION
--------------------------------

Populations of internal orbitals onto Fragments:
  15:      1.000    0.000    0.000  assigned to fragment   1
  16:      1.000    0.000    0.000  assigned to fragment   1
  17:      1.000    0.000    0.000  assigned to fragment   1
  18:      1.000    0.000    0.000  assigned to fragment   1
  19:      0.000    1.001    0.001  assigned to fragment   2
  20:      0.000    1.000    0.000  assigned to fragment   2
  21:      0.000    1.000    0.000  assigned to fragment   2
  22:      0.000    1.000    0.000  assigned to fragment   2
  23:      0.000    0.001    1.001  assigned to fragment   3
  24:      0.000    0.000    1.000  assigned to fragment   3
  25:      0.000    0.000    1.000  assigned to fragment   3
  26:      0.000    0.000    1.000  assigned to fragment   3

Summary assignment:
   4 orbitals assigned to fragment   1
   4 orbitals assigned to fragment   2
   4 orbitals assigned to fragment   3

PNO truncation parameters                   .... 
    PAOOverlapThresh   =        1.000e-08

Pair selection                          .... 
  modified with fragment specific keywords
  Pairs will be selected according to these
  intra(inter)fragment cutoffs
  1 <-> 1
    Intrafragment pairs 1 <-> 1 neglected for CCSD
  1 <-> 2
    TCutPairs          =        1.000e-05
    TCutPNO            =        3.330e-07
    TCutMKN            =        1.000e-03
    TCutDO             =        1.000e-02
    TCutPNOSingles     =        9.990e-09
    TCutMP2Pairs       =        1.000e-06
  1 <-> 3
    TCutPairs          =        1.000e-05
    TCutPNO            =        3.330e-07
    TCutMKN            =        1.000e-03
    TCutDO             =        1.000e-02
    TCutPNOSingles     =        9.990e-09
    TCutMP2Pairs       =        1.000e-06
  2 <-> 2
    Intrafragment pairs 2 <-> 2 neglected for CCSD
  2 <-> 3
    TCutPairs          =        1.000e-05
    TCutPNO            =        3.330e-07
    TCutMKN            =        1.000e-03
    TCutDO             =        1.000e-02
    TCutPNOSingles     =        9.990e-09
    TCutMP2Pairs       =        1.000e-06
  3 <-> 3
    Intrafragment pairs 3 <-> 3 neglected for CCSD

Type of local MP2 treatment                 .... semi-local MP2
Strategy for PNO selection                  .... occupation number selection
Pair density normalization                  .... MP2 norm
Spin component scaling                      .... not used

   .... Finished loop over pairs

 PNO Occupation Number Statistics: 
  | Av. % of trace(Dij) retained        ...  98.738743205467
  | sigma^2 in % of trace(Dij) retained ...   3.06e-01
  | Av. % of trace(Di) retained         ...  99.999956192337
  | sigma^2 in % of trace(Di) retained  ...   4.52e-10
 Distributions of % trace(Dij) recovered:
  |   [90.0, 99.0) ...    16 ( 69.6 % of all pairs)
  |   [99.0, 99.9) ...     7 ( 30.4 % of all pairs)
 Distributions of % trace(Di) recovered :
  |       >= 99.9  ...    12 (100.0 % of all I-pairs )

Making pair pair interaction lists          ... done

                       ===========================
                         23 OF   60 PAIRS ARE KEPT
                       ===========================

Total time spent in the initial guess                 ...     0.122 sec
SL-MP2 correlation energy (all non-screened pairs)    ...      -0.001904270031 Eh

Initial PNO correlation energy                        ...      -0.001705854661 Eh
sum of pair energies estimated for screened out pairs ...       0.000000000000 Eh
sum of MP2 pair energies for pairs that were not kept ...      -0.000151698462 Eh
sum of PNO error estimates for the kept pairs         ...      -0.000046716908 Eh
                                                          --------------------
sum of all corrections                                         -0.000198415370
Initial total correlation energy                               -0.001904270031
Thresholds for map construction and integral transformation for fine MP2 and CCSD(T) calculation:
   TCutMKN   ...     1.0e-03
   TCutDO    ...     1.0e-02
   TCutPairs ...     1.0e-05
   TCutCMO   ...     1.0e-03
   TCutCPAO  ...     1.0e-03

Time for aux screen maps:            0.000
Time for maps after fine MP2:            0.001
-----------------------------
LOCAL RI TRANSFORMATION (IJV)
-----------------------------

Orbital window:      15 to 26
Basis functions:     81 (33 shells)
Aux. functions:     276 (84 shells)
Use SHARK:           on

Processing maps (0.0 sec)
Average map sizes:
   Aux shells -> MOs(i)            9.7
   Aux shells -> MOs(j)           12.0
   MOs        -> AO shells        25.7

Calculating integrals NOTE: Switching SHARK to General Contraction for MDCI
      If that is not desired please turn off the PGCFlag in the input (%shark PGCFlag 0 end)
(0.4 sec, 0.247 MB)
Sorting integrals (0.0 sec, 0.244 MB)
Total time for the integral transformation: 0.4 sec
--------------------------------
LOCAL RI TRANSFORMATION (VABPAO)
--------------------------------

Number of PAOs:      81
Basis functions:     81 (33 shells)
Aux. functions:     276 (84 shells)
Use SHARK:           on

Processing maps (0.0 sec)
Average map sizes:
   Aux shells -> PAOs             81.0
   PAOs       -> AO shells        33.0

Calculating integrals NOTE: Switching SHARK to General Contraction for MDCI
      If that is not desired please turn off the PGCFlag in the input (%shark PGCFlag 0 end)
(0.4 sec, 13.819 MB)
Finished


-------------------------------------
Pair Pair Term precalculation with     
RI-(ij|mn) and (im|jn) transformation  
ON THE FLY                             
-------------------------------------

   IBatch   1 (of   1)              ... done (    0.027 sec)
Total EXT                           ...           0.027 sec

IAVPA Available = YES
VABPAO Available= YES
IJV Available   = YES
IJK Available   = NO
PNO3i Available = YES
PNO3j Available = YES
PNO4 Available  = YES
---------------------
RI-PNO TRANSFORMATION
---------------------

Total Number of PNOs                   ...   178
Average number of PNOs per pair        ...     7
Maximal number of PNOs per pair        ...    10
   #pairs with  1 -  5 PNOs   :    0
   #pairs with  6 - 10 PNOs   :   23
   #pairs with 11 - 15 PNOs   :    0
   #pairs with 16 - 20 PNOs   :    0
   #pairs with 21 - 25 PNOs   :    0
   #pairs with 26 - 30 PNOs   :    0
   #pairs with 31 - 35 PNOs   :    0
   #pairs with 36 - 40 PNOs   :    0
   #pairs with 41 - 45 PNOs   :    0
   #pairs with 46 - 50 PNOs   :    0

Generation of (ij|ab)[P] integrals            ... on
Generation of (ia|bc)[P],(ja|bc)[P] integrals ... on
Storage of 3 and 4 external integrals         ... on
Generation of ALL (ka|bc)[P] integrals        ... on
Keep RI integrals in memory                   ... off

Ibatch:  1 (of  1)
Starting 2-4 index PNO integral generation ... done

Timings:
Total PNO integral transformation time     ...          0.049 sec
Size of the 3-external file                ...         0 MB
Size of the 4-external file                ...         0 MB
Size of the IKJL file                      ...         0 MB
Size of the all 3-external file            ...         0 MB
Size of the 1-external file                ...         0 MB

Making pair/pair overlap matrices          ... done (    0.017 sec)
Size of the pair overlap file              ... 0 MB
Redoing the guess amplitudes               ... done (    0.000 sec)

-------------------------
FINAL STARTUP INFORMATION
-------------------------

E(0)                                       ...  -1580.399886330
E(SL-MP2)                                  ...     -0.001904270
E(SL-MP2) including corrections            ...     -0.001904270
Initial E(tot)                             ...  -1580.401790600
<T|T>                                      ...      0.000642119
Number of pairs included                   ... 23
Total number of pairs                      ... 78

------------------------------------------------
                  RHF COUPLED CLUSTER ITERATIONS
------------------------------------------------

Number of PNO amplitudes to be optimized   ...         1414
Number of non-PNO amplitudes               ...        67068
Untruncated number of regular amplitudes   ...       227448

Iter       E(tot)           E(Corr)          Delta-E          Residual     Time
  0  -1580.401790427     -0.001705682      0.000198588      0.000671463    0.02
                           *** Turning on DIIS ***
  1  -1580.401820983     -0.001736237     -0.000030556      0.000158371    0.02
  2  -1580.401835221     -0.001750476     -0.000014238      0.000027676    0.02
  3  -1580.401837124     -0.001752378     -0.000001903      0.000005670    0.02
  4  -1580.401837204     -0.001752459     -0.000000081      0.000001303    0.02
  5  -1580.401837188     -0.001752443      0.000000016      0.000000284    0.02
               --- The Coupled-Cluster iterations have converged ---

----------------------
COUPLED CLUSTER ENERGY
----------------------

E(0)                                       ...  -1580.399886330
E(CORR)(strong-pairs)                      ...     -0.001752443
E(CORR)(weak-pairs)                        ...     -0.000198415
E(CORR)(corrected)                         ...     -0.001950859
E(TOT)                                     ...  -1580.401837188
Singles Norm <S|S>**1/2                    ...      0.001119062  
T1 diagnostic                              ...      0.000228428  

------------------
LARGEST AMPLITUDES
------------------
  23-> 27  19-> 27       0.002094
  23-> 27  19-> 30       0.001473
  23-> 30  19-> 27       0.001473
  24-> 28  22-> 28       0.001394
  25-> 28  20-> 28       0.001351
  23-> 27  22-> 27       0.001313
  26-> 28  21-> 28       0.001287
  26-> 27  19-> 27       0.001277
  25-> 27  19-> 27       0.001258
  24-> 27  19-> 27       0.001256
  23-> 27  21-> 27       0.001246
  23-> 27  20-> 27       0.001232
  25-> 28  22-> 28       0.001137
  24-> 28  22-> 32       0.001135
  24-> 32  22-> 28       0.001135
  26-> 31  19-> 27       0.001130


 ===========================================================
         LOCAL ENERGY DECOMPOSITION FOR DLPNO-CC METHODS
 ===========================================================

Maximum Iterations for the Localization .. 600
Tolerance for the Localization          ..  1.00e-06
Number of fragments = 3
Fragment  1:  0
Fragment  2:  1
Fragment  3:  2

Populations of internal orbitals onto Fragments:
   0:      1.000    0.000    0.000  assigned to fragment   1
   1:      1.000    0.000    0.000  assigned to fragment   1
   2:      1.000    0.000    0.000  assigned to fragment   1
   3:      1.000    0.000    0.000  assigned to fragment   1
   4:      1.000    0.000    0.000  assigned to fragment   1
   5:      0.000    1.000    0.000  assigned to fragment   2
   6:      0.000    1.000    0.000  assigned to fragment   2
   7:      0.000    1.000    0.000  assigned to fragment   2
   8:      0.000    1.000    0.000  assigned to fragment   2
   9:      0.000    1.000    0.000  assigned to fragment   2
  10:      0.000    0.000    1.000  assigned to fragment   3
  11:      0.000    0.000    1.000  assigned to fragment   3
  12:      0.000    0.000    1.000  assigned to fragment   3
  13:      0.000    0.000    1.000  assigned to fragment   3
  14:      0.000    0.000    1.000  assigned to fragment   3
  15:      1.000    0.000    0.000  assigned to fragment   1
  16:      1.000    0.000    0.000  assigned to fragment   1
  17:      1.000    0.000    0.000  assigned to fragment   1
  18:      1.000    0.000    0.000  assigned to fragment   1
  19:      0.000    1.001    0.001  assigned to fragment   2
  20:      0.000    1.000    0.000  assigned to fragment   2
  21:      0.000    1.000    0.000  assigned to fragment   2
  22:      0.000    1.000    0.000  assigned to fragment   2
  23:      0.000    0.001    1.001  assigned to fragment   3
  24:      0.000    0.000    1.000  assigned to fragment   3
  25:      0.000    0.000    1.000  assigned to fragment   3
  26:      0.000    0.000    1.000  assigned to fragment   3

Summary assignment:
   9 orbitals assigned to fragment   1
   9 orbitals assigned to fragment   2
   9 orbitals assigned to fragment   3


--------------------------------
CORRELATION ENERGY DECOMPOSITION
--------------------------------


--------------------------------------------------
INTER- vs INTRA-FRAGMENT CORRELATION ENERGIES (Eh)
--------------------------------------------------

                                   Fragment   1            Fragment   2            Fragment   3            
                         ----------------------  ----------------------  ----------------------  
Intra strong pairs               0.000000000000         0.000000000000         0.000000000000  sum=        0.000000000000
Intra weak pairs                 0.000000000000         0.000000000000         0.000000000000  sum=        0.000000000000
Singles contribution            -0.000000000002        -0.000000000256        -0.000000000252  sum=       -0.000000000510
                         ----------------------  ----------------------  ----------------------  
                                -0.000000000002        -0.000000000256        -0.000000000252  sum=       -0.000000000510


Interaction correlation for Fragments   2 and   1:
--------------------------------------------------
Inter strong pairs               -0.000053295503 (   -0.033 kcal/mol)
Inter weak pairs                 -0.000069833313 (   -0.044 kcal/mol)
                          ----------------------
Total interaction                -0.000123128816 (   -0.077 kcal/mol)

Interaction correlation for Fragments   3 and   1:
--------------------------------------------------
Inter strong pairs               -0.000039670903 (   -0.025 kcal/mol)
Inter weak pairs                 -0.000082520646 (   -0.052 kcal/mol)
                          ----------------------
Total interaction                -0.000122191549 (   -0.077 kcal/mol)
Interaction correlation for Fragments   3 and   2:
--------------------------------------------------
Inter strong pairs               -0.001659476225 (   -1.041 kcal/mol)
Inter weak pairs                 -0.000046061412 (   -0.029 kcal/mol)
                          ----------------------
Total interaction                -0.001705537637 (   -1.070 kcal/mol)



Sum of INTRA-fragment correlation energies  =        -0.000000000510
Sum of INTER-fragment correlation energies  =        -0.001950858002
                                              ---------------------
Total correlation energy                    =        -0.001950858512

---------------------------------------------
DECOMPOSITION OF CCSD STRONG PAIRS INTO      
    DOUBLE EXCITATION TYPES (Eh)             
---------------------------------------------

Foster-Boys localization is used for localizing PNOs

Intra fragment contributions: 
INTRA Fragment 1                        0.000000000 
INTRA Fragment 2                        0.000000000 
INTRA Fragment 3                        0.000000000 

Charge transfer contributions: 
Charge Transfer 1 to 2                 -0.000000050 
Charge Transfer 1 to 3                 -0.000000041 
Charge Transfer 2 to 1                 -0.000000082 
Charge Transfer 2 to 3                 -0.000088810 
Charge Transfer 3 to 1                 -0.000000053 
Charge Transfer 3 to 2                 -0.000098186 

Dispersion contributions: 
Dispersion  2,1                        -0.000053163 
Dispersion  3,1                        -0.000039577 
Dispersion  3,2                        -0.001472480 

Singles contributions:                   
Singles energy                         -0.000000001 
 
Delocalized contributions: 
Delocalized correlation                 0.000000000 

#Time for LED analysis ..       0.0 (sec)



--------------------------------------------------------------------------------
                                    TIMINGS
--------------------------------------------------------------------------------


Total execution time                   ...        2.494 sec

Localization of occupied MO's          ...        0.076 sec (  3.1%)
Fock Matrix Formation                  ...        0.600 sec ( 24.1%)
Global overlap, Fock, MKN matrices     ...        0.102 sec (  4.1%)
Differential overlap integrals         ...        0.129 sec (  5.2%)
Organizing maps                        ...        0.002 sec (  0.1%)
RI 3-index integral generations        ...        0.969 sec ( 38.9%)
RI-PNO integral transformation         ...        0.095 sec (  3.8%)
Initial Guess                          ...        0.219 sec (  8.8%)
DIIS Solver                            ...        0.003 sec (  0.1%)
State Vector Update                    ...        0.000 sec (  0.0%)
Sigma-vector construction              ...        0.107 sec (  4.3%)
  <D|H|D>(0-ext)                       ...        0.009 sec (  8.8% of sigma)
  <D|H|D>(2-ext)                       ...        0.005 sec (  4.3% of sigma)
  <D|H|D>(4-ext)                       ...        0.001 sec (  1.4% of sigma)
  <D|H|D>(4-ext-corr)                  ...        0.005 sec (  5.1% of sigma)
  CCSD doubles correction              ...        0.002 sec (  1.8% of sigma)
  <S|H|S>                              ...        0.019 sec ( 17.5% of sigma)
  <S|H|D>(1-ext)                       ...        0.008 sec (  7.4% of sigma)
  <S|H|D>(3-ext)                       ...        0.001 sec (  1.0% of sigma)
  Fock-dressing                        ...        0.041 sec ( 38.7% of sigma)
  Singles amplitudes                   ...        0.003 sec (  2.4% of sigma)
  (ik|jl)-dressing                     ...        0.006 sec (  6.0% of sigma)
  (ij|ab),(ia|jb)-dressing             ...        0.003 sec (  2.8% of sigma)
Local Energy Decomposition             ...        0.010 sec (  0.4% of ALL)


Maximum memory used throughout the entire MDCI-calculation: 51.1 MB
----------------------------   ----------------
Inter-fragment dispersion       -0.001763636
----------------------------   ----------------


-------------------------   --------------------
FINAL SINGLE POINT ENERGY     -1580.401649966108 
-------------------------   --------------------


------------------------------------------------------------------------------
                              ORCA PROPERTY CALCULATIONS
------------------------------------------------------------------------------

GBWName                                 ... AR3LD_3.2_4.8_4.8.gbw
Number of atoms                         ...      3
Number of basis functions               ...    150
Max core memory                         ...   1024 MB

Electric properties:
Dipole moment                           ... YES
Quadrupole moment                       ...  NO
Static polarizability (Dipole/Dipole)   ...  NO
Static polarizability (Dipole/Quad.)    ...  NO
Static polarizability (Quad./Quad.)     ...  NO
Static polarizability (Velocity)        ...  NO

Atomic electric properties:
Dipole moment                           ...  NO
Quadrupole moment                       ...  NO
Static polarizability                   ...  NO

Choice of electric origin               ... Center of mass
Position of electric origin             ...     5.375221     1.900428     0.000000

General magnetic properties:
Magnetizability                         ...  NO

EPR properties:
g-Tensor (aka g-matrix)                 ...  NO
Zero-Field splitting spin-orbit         ...  NO
Zero-field splitting spin-spin          ...  NO
Hyperfine couplings                     ...  NO (   0 nuclei)
Quadrupole couplings                    ...  NO (   0 nuclei)
Contact density                         ...  NO (   0 nuclei)

NMR properties:
Chemical shifts                         ...  NO (   0 nuclei)
Spin-rotation constants                 ...  NO (   0 nuclei)
Spin-spin couplings                     ...  NO (   0 nuclei,    0 pairs)

Choice of magnetic origin               ... GIAO
Position of magnetic origin             ...     0.000000     0.000000     0.000000

Properties with geometric perturbations:
SCF Hessian                             ...  NO
IR spectrum                             ...  NO
VCD spectrum                            ...  NO
X-ray spectroscopy properties:
SCF XES/XAS/RIXS spectra                ...  NO


-------------
DIPOLE MOMENT
-------------

Method             : SCF
Type of density    : Electron Density
Multiplicity       :   1
Irrep              :   0
Energy             : -1580.3998863299220830 Eh
Relativity type    : 
Basis              : AO
                                X                 Y                 Z
Electronic contribution:     -0.000345268      -0.000122047       0.000000000
Nuclear contribution   :      0.000000000      -0.000000000       0.000000000
                        -----------------------------------------
Total Dipole Moment    :     -0.000345268      -0.000122047       0.000000000
                        -----------------------------------------
Magnitude (a.u.)       :      0.000366204
Magnitude (Debye)      :      0.000930817



--------------------
Rotational spectrum 
--------------------
 
Rotational constants in cm-1:             0.082420             0.030907             0.022478 
Rotational constants in MHz :          2470.885392           926.582022           673.877834 

Dipole components along the rotational axes: 
x,y,z [a.u.] :     0.000366     0.000000     0.000000 
x,y,z [Debye]:     0.000931     0.000000     0.000000 

 

Dipole moment calculation done in   0.0 sec 

Maximum memory used throughout the entire PROP-calculation: 6.8 MB

--------------------------------
SUGGESTED CITATIONS FOR THIS RUN
--------------------------------

Below you find a list of papers that are relevant to this ORCA run
We neither can nor want to force you to cite these papers, but we appreciate if you do
You receive ORCA, which is the product of decades of hard work by many enthusiastic individuals, for free
The only thing we kindly ask in return is that you cite our papers,
We deeply appreciate it, if you show your appreciation for ORCA by not just citing the generic ORCA reference.

Please note that relegating all ORCA citations to the supporting information does *not* help us.
SI sections are not indexed - citations you put there will not count into any citation statistics
But we need these citations in order to attract the funding resources that allow us to do what we are doing

Therefore, if you are a happy ORCA user, please consider citing a few of the papers listed below in the main body of your paper

In addition to the list printed below, the program has created the file AR3LD_3.2_4.8_4.8.bibtex that contains the list in bibtex format
You can import this file easily into all common literature databanks and citation aid programs


List of essential papers. We consider these as the minimum necessary citations

  1. Neese,F.
     Software update: the ORCA program system, version 5.0
     WIRES Comput. Molec. Sci., 2022 12(1)e1606
     doi.org/10.1002/wcms.1606

List of papers to cite with high priority. The work reported in these papers was absolutely
necessary for this run to complete.
Our perspective: the developers of density functionals and basis sets usually get cited in chemistry papers
Good! But without the algorithms to do something with them, the functionals or basis sets would not do anything.
Hence, in our opinion, the algorithm design and method developments papers are equally worthy of getting cited

  1. Neese,F.; Hansen,A.; Liakos,D.G.
     Efficient and accurate approximations to the local coupled cluster singles doubles method using a truncated pair natural orbital basis
     J. Chem. Phys., 2009 131 064103
     doi.org/10.1063/1.3173827
  2. Neese,F.; Wennmohs,F.; Hansen,A.
     Efficient and accurate local approximations to coupled-electron pair approaches: An attempt to revive the pair natural orbital method
     J. Chem. Phys., 2009 130 114108
     doi.org/10.1063/1.3086717
  3. Riplinger,C.; Neese,F.
     An efficient and near linear scaling pair natural orbital based local coupled cluster method
     J. Chem. Phys., 2013 138(3)Art. No. 034106
     doi.org/10.1063/1.4773581
  4. Datta,D.; Kossmann,S.; Neese,F.
     Analytic energy derivatives for the calculation of the first-order molecular properties using the domain-based local pair-natural orbital coupled-cluster theory
     J. Chem. Phys., 2016 145 
     doi.org/10.1063/1.4962369
  5. Riplinger,C.; Pinski,P.; Becker,U.; Valeev,E.F.; Neese,F.
     Sparse maps-A systematic infrastructure for reduced-scaling electronic structure methods. II. Linear scaling domain based pair natural orbital coupled cluster theory
     J. Chem. Phys., 2016 144 
     doi.org/10.1063/1.4939030
  6. Schneider,W.B.; Bistoni,G.; Sparta,M.; Saitow,M.; Riplinger,C.; Auer,A.A.; Neese,F.
     Decomposition of Intermolecular Interaction Energies within the Local Pair Natural Orbital Coupled Cluster Framework
     J. Theo. Comp. Chem., 2016 12 4778-4792
     doi.org/10.1021/acs.jctc.6b00523
  7. Bistoni,G.; Riplinger,C.; Minenkov,Y.; Cavallo,L.; Auer,A.A.; Neese,F.
     Treating Subvalence Correlation Effects in Domain Based Pair Natural Orbital Coupled Cluster Calculations: An Out-of-the-Box Approach
     J. Theo. Comp. Chem., 2017 13 3220-3227
     doi.org/10.1021/acs.jctc.7b00352
  8. Altun,A.; Neese,F.; Bistoni,G.
     HFLD: A Nonempirical London Dispersion-Corrected Hartree-Fock Method for the Quantification and Analysis of Noncovalent Interaction Energies of Large Molecular Systems
     J. Chem. Theory Comput., 2019 15 5894-5907
     doi.org/10.1021/acs.jctc.9b00425
  9. Neese,F.
     The SHARK Integral Generation and Digestion System
     J. Comp. Chem., 2022  1-16
     doi.org/10.1002/jcc.26942
 10. Altun,A.; Neese,F.; Bistoni,G.
     Open-Shell Variant of the London Dispersion-Corrected Hartree–Fock Method (HFLD) for the Quantification and Analysis of Noncovalent Interaction Energies
     J. Chem. Theory Comput., 2022 XX XXXX-XXXX
     doi.org/10.1021/acs.jctc.1c01295

List of suggested additional citations. These are papers that are important in the 'surrounding' of 
of this run, or papers that preceded the highly important papers. If you like your results we are grateful for a citation.

  1. Neese,F.
     The ORCA program system
     WIRES Comput. Molec. Sci., 2012 2(1)73-78
     doi.org/10.1002/wcms.81
  2. Neese,F.
     Software update: the ORCA program system, version 4.0
     WIRES Comput. Molec. Sci., 2018 8(1)1-6
     doi.org/10.1002/wcms.1327
  3. Neese,F.; Wennmohs,F.; Becker,U.; Riplinger,C.
     The ORCA quantum chemistry program package
     J. Chem. Phys., 2020 152 Art. No. L224108
     doi.org/10.1063/5.0004608
  4. Bistoni,G.
     Finding chemical concepts in the Hilbert space: Coupled cluster analyses of noncovalent interactions
     WIRES Comput. Molec. Sci., 2020 10(3)e1442
     doi.org/10.1002/wcms.1442

List of optional additional citations

  1. Neese,F.
     Approximate second-order SCF convergence for spin unrestricted wavefunctions
     Chem. Phys. Lett., 2000 325(1-3)93-98
     doi.org/10.1016/s0009-2614(00)00662-x

Timings for individual modules:

Sum of individual times          ...        6.796 sec (=   0.113 min)
Startup calculation              ...        1.235 sec (=   0.021 min)  18.2 %
SCF iterations                   ...        2.931 sec (=   0.049 min)  43.1 %
Property integrals               ...        0.045 sec (=   0.001 min)   0.7 %
Property calculations            ...        0.069 sec (=   0.001 min)   1.0 %
MDCI module                      ...        2.516 sec (=   0.042 min)  37.0 %
                             ****ORCA TERMINATED NORMALLY****
TOTAL RUN TIME: 0 days 0 hours 0 minutes 6 seconds 859 msec
