
                                 *****************
                                 * O   R   C   A *
                                 *****************

                                            #,                                       
                                            ###                                      
                                            ####                                     
                                            #####                                    
                                            ######                                   
                                           ########,                                 
                                     ,,################,,,,,                         
                               ,,#################################,,                 
                          ,,##########################################,,             
                       ,#########################################, ''#####,          
                    ,#############################################,,   '####,        
                  ,##################################################,,,,####,       
                ,###########''''           ''''###############################       
              ,#####''   ,,,,##########,,,,          '''####'''          '####       
            ,##' ,,,,###########################,,,                        '##       
           ' ,,###''''                  '''############,,,                           
         ,,##''                                '''############,,,,        ,,,,,,###''
      ,#''                                            '''#######################'''  
     '                                                          ''''####''''         
             ,#######,   #######,   ,#######,      ##                                
            ,#'     '#,  ##    ##  ,#'     '#,    #''#        ,####,   ,####,        
            ##       ##  ##   ,#'  ##            #'  '#       #'       #'  '#        
            ##       ##  #######   ##           ,######,      #####,   #    #        
            '#,     ,#'  ##    ##  '#,     ,#' ,#      #,     #,   #   #,  ,#        
             '#######'   ##     ##  '#######'  #'      '#     '####' # '####'        



                #########################################################
                #                        -***-                          #
                #          Department of theory and spectroscopy        #
                #                                                       #
                #                      Frank Neese                      #
                #                                                       #
                #     Directorship, Architecture, Infrastructure        #
                #                    SHARK, DRIVERS                     #
                #        Core code/Algorithms in most modules           #
                #                                                       #
                #        Max Planck Institute fuer Kohlenforschung      #
                #                Kaiser Wilhelm Platz 1                 #
                #                 D-45470 Muelheim/Ruhr                 #
                #                      Germany                          #
                #                                                       #
                #                  All rights reserved                  #
                #                        -***-                          #
                #########################################################


                         Program Version 6.0.0  -   RELEASE  -


 With contributions from (in alphabetic order):
   Daniel Aravena         : Magnetic Suceptibility
   Michael Atanasov       : Ab Initio Ligand Field Theory (pilot matlab implementation)
   Alexander A. Auer      : GIAO ZORA, VPT2 properties, NMR spectrum
   Ute Becker             : All parallelization in ORCA, NUMFREQ, NUMCALC
   Giovanni Bistoni       : ED, misc. LED, open-shell LED, HFLD
   Martin Brehm           : Molecular dynamics
   Dmytro Bykov           : pre 5.0 version of the SCF Hessian
   Marcos Casanova-Páez   : Triplet and SCS-CIS(D). UHF-(DLPNO)-IP/EA/STEOM-CCSD. UHF-CVS-IP/STEOM-CCSD
   Vijay G. Chilkuri      : MRCI spin determinant printing, contributions to CSF-ICE
   Pauline Colinet        : FMM embedding
   Dipayan Datta          : RHF DLPNO-CCSD density
   Achintya Kumar Dutta   : EOM-CC, STEOM-CC
   Nicolas Foglia         : Exact transition moments, OPA infrastructure, MCD improvements
   Dmitry Ganyushin       : Spin-Orbit,Spin-Spin,Magnetic field MRCI
   Miquel Garcia          : C-PCM and meta-GGA Hessian, CCSD/C-PCM, Gaussian charge scheme
   Tiago L. C. Gouveia    : GS-ROHF, GS-ROCIS
   Yang Guo               : DLPNO-NEVPT2, F12-NEVPT2, CIM, IAO-localization
   Andreas Hansen         : Spin unrestricted coupled pair/coupled cluster methods
   Ingolf Harden          : AUTO-CI MPn and infrastructure 
   Benjamin Helmich-Paris : MC-RPA, TRAH-(SCF,CASSCF), AVAS, COSX integrals, SCF dyn. polar.
   Lee Huntington         : MR-EOM, pCC
   Robert Izsak           : Overlap fitted RIJCOSX, COSX-SCS-MP3, EOM
   Riya Kayal             : Wick's Theorem for AUTO-CI, AUTO-CI UHF-CCSDT
   Emily Kempfer          : AUTO-CI, RHF CISDT and CCSDT
   Christian Kollmar      : KDIIS, OOCD, Brueckner-CCSD(T), CCSD density, CASPT2, CASPT2-K, improved NEVPT2
   Axel Koslowski         : Symmetry handling
   Simone Kossmann        : Meta GGA functionals, TD-DFT gradient, OOMP2, (MP2 Hessian; deprecated post 5.0)
   Lucas Lang             : DCDCAS
   Marvin Lechner         : AUTO-CI (C++ implementation), FIC-MRCC
   Spencer Leger          : CASSCF response
   Dagmar Lenk            : GEPOL surface, SMD, ORCA-2-JSON
   Dimitrios Liakos       : Extrapolation schemes; Compound Job, initial MDCI parallelization
   Dimitrios Manganas     : Further ROCIS development; embedding schemes. LFT, Crystal Embedding
   Dimitrios Pantazis     : SARC Basis sets
   Anastasios Papadopoulos: AUTO-CI, single reference methods and gradients
   Taras Petrenko         : pre 6.0 DFT Hessian and TD-DFT gradient, (ASA, deprecated), ECA, 1-Electron XAS/XES, NRVS
   Peter Pinski           : DLPNO-MP2, DLPNO-MP2 Gradient
   Christoph Reimann      : Effective Core Potentials
   Marius Retegan         : Local ZFS, SOC
   Christoph Riplinger    : Optimizer, TS searches, QM/MM, DLPNO-CCSD(T), (RO)-DLPNO pert. Triples
   Michael Roemelt        : Original ROCIS implementation
   Masaaki Saitow         : Open-shell DLPNO-CCSD energy and density
   Barbara Sandhoefer     : DKH picture change effects
   Kantharuban Sivalingam : CASSCF convergence/infrastructure, NEVPT2 and variants, FIC-MRCI
   Bernardo de Souza      : ESD, SOC TD-DFT
   Georgi Stoychev        : AutoAux, RI-MP2 NMR, DLPNO-MP2 response, X2C
   Van Anh Tran           : RI-MP2 g-tensors
   Willem Van den Heuvel  : Paramagnetic NMR
   Zikuan Wang            : NOTCH, Electric field optimization 
   Frank Wennmohs         : Technical directorship and infrastructure
   Hang Xu                : AUTO-CI-Response properties 


 We gratefully acknowledge several colleagues who have allowed us to
 interface, adapt or use parts of their codes:
   Stefan Grimme, W. Hujo, H. Kruse, P. Pracht,  : VdW corrections, initial TS optimization,
                  C. Bannwarth, S. Ehlert,         DFT functionals, gCP, sTDA/sTD-DF
                  L. Wittmann, M. Mueller
   Ed Valeev, F. Pavosevic, A. Kumar             : LibInt (2-el integral package), F12 methods
   Garnet Chan, S. Sharma, J. Yang, R. Olivares  : DMRG
   Ulf Ekstrom                                   : XCFun DFT Library
   Mihaly Kallay                                 : mrcc  (arbitrary order and MRCC methods)
   Frank Weinhold                                : gennbo (NPA and NBO analysis)
   Simon Mueller                                 : openCOSMO-RS
   Christopher J. Cramer and Donald G. Truhlar   : smd solvation model
   Lars Goerigk                                  : TD-DFT with DH, B97 family of functionals
   V. Asgeirsson, H. Jonsson                     : NEB implementation
   FAccTs GmbH                                   : IRC, NEB, NEB-TS, DLPNO-Multilevel, CI-OPT
                                                   MM, QMMM, 2- and 3-layer-ONIOM, Crystal-QMMM,
                                                   LR-CPCM, SF, NACMEs, symmetry and pop. for TD-DFT,
                                                   nearIR, NL-DFT gradient (VV10), updates on ESD,
                                                   ML-optimized integration grids, MBIS, APM,
                                                   GOAT, DOCKER, SOLVATOR, interface openCOSMO-RS
   S Lehtola, MJT Oliveira, MAL Marques          : LibXC Library
   Liviu Ungur et al                             : ANISO software


 Your calculation uses the libint2 library for the computation of 2-el integrals
 For citations please refer to: http://libint.valeyev.net

 Your ORCA version has been built with support for libXC version: 6.2.2
 For citations please refer to: https://libxc.gitlab.io

 This ORCA versions uses:
   CBLAS   interface :  Fast vector & matrix operations
   LAPACKE interface :  Fast linear algebra routines
   SCALAPACK package :  Parallel linear algebra routines
   Shared memory     :  Shared parallel matrices
   BLAS/LAPACK       :  OpenBLAS 0.3.27  USE64BITINT DYNAMIC_ARCH NO_AFFINITY Haswell SINGLE_THREADED
        Core in use  :  Haswell
   Copyright (c) 2011-2014, The OpenBLAS Project


================================================================================

----- Orbital basis set information -----
Your calculation utilizes the basis: aug-cc-pVDZ 
    H, B-Ne : Obtained from the ccRepo (grant-hill.group.shef.ac.uk/ccrepo) Feb. 2017
              R. A. Kendall, T. H. Dunning, Jr., R. J. Harrison, J. Chem. Phys. 96, 6796 (1992)
         He : Obtained from the ccRepo (grant-hill.group.shef.ac.uk/ccrepo) Feb. 2017
              D. E. Woon, T. H. Dunning, Jr., J. Chem. Phys. 100, 2975 (1994)
  Li-Be, Na : Obtained from the ccRepo (grant-hill.group.shef.ac.uk/ccrepo) Feb. 2017
              B. P. Prascher, D. E. Woon, K. A. Peterson, T. H. Dunning, Jr., A. K. Wilson, Theor. Chem. Acc. 128, 69 (2011)
         Mg : Obtained from the Peterson Research Group Website (tyr0.chem.wsu.edu/~kipeters) Feb. 2017
              B. P. Prascher, D. E. Woon, K. A. Peterson, T. H. Dunning, Jr., A. K. Wilson, Theor. Chem. Acc. 128, 69 (2011)
      Al-Ar : Obtained from the ccRepo (grant-hill.group.shef.ac.uk/ccrepo) Feb. 2017
              D. E. Woon, T. H. Dunning, Jr., J. Chem. Phys. 98, 1358 (1993)
      Sc-Zn : Obtained from the ccRepo (grant-hill.group.shef.ac.uk/ccrepo) Feb. 2017
              N. B. Balabanov, K. A. Peterson, J. Chem. Phys. 123, 064107 (2005)
              N. B. Balabanov, K. A. Peterson, J. Chem. Phys. 125, 074110 (2006)
      Ga-Kr : Obtained from the ccRepo (grant-hill.group.shef.ac.uk/ccrepo) Feb. 2017
              A. K. Wilson, D. E. Woon, K. A. Peterson, T. H. Dunning, Jr., J. Chem. Phys. 110, 7667 (1999)

----- AuxC basis set information -----
Your calculation utilizes the auxiliary basis: aug-cc-pVDZ/C 
  H-He, B, Ne, Al-Ar, Ga-Ge, Se-Br : Obtained from the EMSL Basis Set Exchange (bse.pnl.gov) Feb. 2017
                                     F. Weigend, A. Kohn, C. Hattig, J. Chem. Phys. 116, 3175 (2002)
                            Be, Mg : Obtained from the TURBOMOLE 7.0 basis set library
                                     C. Haettig, Phys. Chem. Chem. Phys. 7, 59 (2005)
                               C-F : Obtained from the EMSL Basis Set Exchange (bse.pnl.gov) Feb. 2017
                                     C. Haettig, Phys. Chem. Chem. Phys. 7, 59 (2005)
                                     F. Weigend, A. Kohn, C. Hattig, J. Chem. Phys. 116, 3175 (2002)
                                As : Obtained from the EMSL Basis Set Exchange (bse.pnl.gov) Feb. 2017
                                     C. Haettig, G. Schmitz, J. Kossmann, Phys. Chem. Chem. Phys. 14, 6549 (2012)
                                Kr : Obtained from the TURBOMOLE 7.0 basis set library
                                     F. Weigend, A. Kohn, C. Hattig, J. Chem. Phys. 116, 3175 (2002)
                                     S function revised in Sep. 2009

================================================================================
                                        WARNINGS
                       Please study these warnings very carefully!
================================================================================


WARNING: Post HF methods need fully converged wavefunctions
  ===> : Setting SCFConvForced true
         You can overwrite this default with %scf ConvForced false 


================================================================================
                                       INPUT FILE
================================================================================
NAME = AR3LD_2.8_3.6_4.8.inp
|  1> # MP2 scan of the potential energy curve for Ar...Ar
|  2>                 ! HFLD aug-cc-pvdz aug-cc-pvdz/C verytightscf
|  3>                 *xyz 0 1
|  4>                 Ar(1)	0    0	0.00000000000000
|  5>                 Ar(2)	4.8	0    0.00000000000000
|  6>                 Ar(3)	2.9333333333333336	2.0869967789998034    0.00000000000000
|  7>                 **                         ****END OF INPUT****
================================================================================

                       ****************************
                       * Single Point Calculation *
                       ****************************

---------------------------------
CARTESIAN COORDINATES (ANGSTROEM)
---------------------------------
  Ar     0.000000    0.000000    0.000000
  Ar     4.800000    0.000000    0.000000
  Ar     2.933333    2.086997    0.000000

----------------------------
CARTESIAN COORDINATES (A.U.)
----------------------------
  NO LB      ZA    FRAG     MASS         X           Y           Z
   0 Ar   18.0000    1    39.948    0.000000    0.000000    0.000000
   1 Ar   18.0000    2    39.948    9.070685    0.000000    0.000000
   2 Ar   18.0000    3    39.948    5.543197    3.943852    0.000000

----------------------------------------------
CARTESIAN COORDINATES OF FRAGMENTS (ANGSTROEM)
----------------------------------------------

 FRAGMENT 1 
  Ar    0.000000    0.000000    0.000000

 FRAGMENT 2 
  Ar    4.800000    0.000000    0.000000

 FRAGMENT 3 
  Ar    2.933333    2.086997    0.000000

--------------------------------
INTERNAL COORDINATES (ANGSTROEM)
--------------------------------
 Ar     0   0   0     0.000000000000     0.00000000     0.00000000
 Ar     1   0   0     4.800000000000     0.00000000     0.00000000
 Ar     2   1   0     2.800000000000    48.18968510     0.00000000

---------------------------
INTERNAL COORDINATES (A.U.)
---------------------------
 Ar     0   0   0     0.000000000000     0.00000000     0.00000000
 Ar     1   0   0     9.070685442822     0.00000000     0.00000000
 Ar     2   1   0     5.291233174980    48.18968510     0.00000000

---------------------
BASIS SET INFORMATION
---------------------
There are 1 groups of distinct atoms

 Group   1 Type Ar  : 35s16p2d contracted to 5s4p2d pattern {11111111/7711/11}

Atom   0Ar   basis set group =>   1
Atom   1Ar   basis set group =>   1
Atom   2Ar   basis set group =>   1
---------------------------------
AUXILIARY/C BASIS SET INFORMATION
---------------------------------
There are 1 groups of distinct atoms

 Group   1 Type Ar  : 10s8p6d4f contracted to 10s8p6d4f pattern {1111111111/11111111/111111/1111}

Atom   0Ar   basis set group =>   1
Atom   1Ar   basis set group =>   1
Atom   2Ar   basis set group =>   1
------------------------------------------------------------------------------
                             ORCA STARTUP CALCULATIONS
------------------------------------------------------------------------------
------------------------------------------------------------------------------
                   ___                                                        
                  /   \      - P O W E R E D   B Y -                         
                 /     \                                                     
                 |  |  |   _    _      __       _____    __    __             
                 |  |  |  | |  | |    /  \     |  _  \  |  |  /  |          
                  \  \/   | |  | |   /    \    | | | |  |  | /  /          
                 / \  \   | |__| |  /  /\  \   | |_| |  |  |/  /          
                |  |  |   |  __  | /  /__\  \  |    /   |      \           
                |  |  |   | |  | | |   __   |  |    \   |  |\   \          
                \     /   | |  | | |  |  |  |  | |\  \  |  | \   \       
                 \___/    |_|  |_| |__|  |__|  |_| \__\ |__|  \__/        
                                                                              
                      - O R C A' S   B I G   F R I E N D -                    
                                      &                                       
                       - I N T E G R A L  F E E D E R -                       
                                                                              
 v1 FN, 2020, v2 2021, v3 2022-2024                                           
------------------------------------------------------------------------------


----------------------
SHARK INTEGRAL PACKAGE
----------------------

Number of atoms                             ...      3
Number of basis functions                   ...    150
Number of shells                            ...     72
Maximum angular momentum                    ...      2
Integral batch strategy                     ... SHARK/LIBINT Hybrid
RI-J (if used) integral strategy            ... SPLIT-RIJ (Revised 2003 algorithm where possible)
Printlevel                                  ...      1
Contraction scheme used                     ... PARTIAL GENERAL contraction
Prescreening option                         ... SCHWARTZ
   Thresh                                   ... 1.000e-12
   Tcut                                     ... 1.000e-14
   Tpresel                                  ... 1.000e-14 
Coulomb Range Separation                    ... NOT USED
Exchange Range Separation                   ... NOT USED
Multipole approximations                    ... NOT USED
Finite Nucleus Model                        ... NOT USED
CABS basis                                  ... NOT available
Auxiliary Coulomb fitting basis             ... NOT available
Auxiliary J/K fitting basis                 ... NOT available
Auxiliary Correlation fitting basis         ... AVAILABLE
   # of basis functions in Aux-C            ...    276
   # of shells in Aux-C                     ...     84
   Maximum angular momentum in Aux-C        ...      3
Auxiliary 'external' fitting basis          ... NOT available

Checking pre-screening integrals            ... done (  0.0 sec) Dimension = 72
Save PGC pre-screening integrals            ... done (  0.0 sec) Dimension = 72
Calculate PGC overlap integrals             ... done (  0.0 sec) Dimension = 33
Calculating pre-screening integrals (ORCA)  ... done (  0.1 sec) Dimension = 33
Check shell pair data                       ... done (  0.0 sec)
Shell pair information
Shell pair cut-off parameter TPreSel        ...   1.0e-14
Total number of shell pairs                 ...      2628
Shell pairs after pre-screening             ...      1747
Total number of primitive shell pairs       ...      2628
Primitive shell pairs kept                  ...      1745
          la=0 lb=0:    450 shell pairs
          la=1 lb=0:    661 shell pairs
          la=1 lb=1:    263 shell pairs
          la=2 lb=0:    204 shell pairs
          la=2 lb=1:    148 shell pairs
          la=2 lb=2:     21 shell pairs

Calculating one electron integrals          ... done (  0.0 sec)
Calculating RI/C V-Matrix + Cholesky decomp.... done (  0.0 sec)
Calculating Nuclear repulsion               ... done (  0.0 sec) ENN=    144.578772981964 Eh

Diagonalization of the overlap matrix:
Smallest eigenvalue                        ... 1.675e-02
Time for diagonalization                   ...    0.001 sec
Threshold for overlap eigenvalues          ... 1.000e-07
Number of eigenvalues below threshold      ... 0
Time for construction of square roots      ...    0.000 sec
Total time needed                          ...    0.001 sec

-------------------
DFT GRID GENERATION
-------------------

General Integration Accuracy     IntAcc      ... 4.388
Radial Grid Type                 RadialGrid  ... OptM3 with GC (2021)
Angular Grid (max. ang.)         AngularGrid ... 4 (Lebedev-302)
Angular grid pruning method      GridPruning ... 4 (adaptive)
Weight generation scheme         WeightScheme... mBecke (2022)
Basis function cutoff            BFCut       ... 1.0000e-12
Integration weight cutoff        WCut        ... 1.0000e-14
Partially contracted basis set               ... off
Rotationally invariant grid construction     ... off
Angular grids for H and He will be reduced by one unit

Total number of grid points                  ...    22081
Total number of batches                      ...      347
Average number of points per batch           ...       63
Average number of grid points per atom       ...     7360

---------------------
SHARK GRID GENERATION
---------------------

General Integration Accuracy     IntAcc      ... 4.388
Radial Grid Type                 RadialGrid  ... OptM3 with GC (2021)
Angular Grid (max. ang.)         AngularGrid ... 4 (Lebedev-302)
Angular grid pruning method      GridPruning ... 4 (adaptive)
Weight generation scheme         WeightScheme... mBecke (2022)
Basis function cutoff            BFCut       ... 1.0000e-12
Integration weight cutoff        WCut        ... 1.0000e-14
Partially contracted basis set               ... off
Rotationally invariant grid construction     ... off
Angular grids for H and He will be reduced by one unit
Core-polarized basis detected: some atoms will have their core
                               angular grid increased.
Steep s-basis detected: some atoms will have their radial
                        grid points doubled.

Total number of grid points                  ...    58015
Total number of batches                      ...      908
Average number of points per batch           ...       63
Average number of grid points per atom       ...    19338
Initializing property integral containers    ... done (  0.0 sec)

SHARK setup successfully completed in   1.5 seconds

Maximum memory used throughout the entire STARTUP-calculation: 27.5 MB
-------------------------------------------------------------------------------
                                 ORCA GUESS
                   Start orbitals & Density for SCF / CASSCF
-------------------------------------------------------------------------------

------------
SCF SETTINGS
------------
Hamiltonian:
 Ab initio Hamiltonian  Method          .... Hartree-Fock(GTOs)


General Settings:
 Integral files         IntName         .... AR3LD_2.8_3.6_4.8
 Hartree-Fock type      HFTyp           .... RHF
 Total Charge           Charge          ....    0
 Multiplicity           Mult            ....    1
 Number of Electrons    NEL             ....   54
 Basis Dimension        Dim             ....   81
 Nuclear Repulsion      ENuc            ....    144.5787729820 Eh

Convergence Acceleration:
 AO-DIIS                CNVDIIS         .... on
   Start iteration      DIISMaxIt       ....    12
   Startup error        DIISStart       ....  0.200000
   # of expansion vecs  DIISMaxEq       ....     5
   Bias factor          DIISBfac        ....   1.050
   Max. coefficient     DIISMaxC        ....  10.000
 MO-DIIS                CNVKDIIS        .... off
 Trust-Rad. Augm. Hess. CNVTRAH         .... auto
   Auto Start mean grad. ratio tolernc. ....  1.125000
   Auto Start start iteration           ....    50
   Auto Start num. interpolation iter.  ....    10
   Max. Number of Micro iterations      ....    24
   Max. Number of Macro iterations      .... Maxiter - #DIIS iter
   Number of Davidson start vectors     ....     2
   Converg. threshold    (grad. norm)   ....   2.000e-06
   Grad. Scal. Fac. for Micro threshold ....   0.100
   Minimum threshold for Micro iter.    ....   1.000e-02
   NR start threshold (gradient norm)   ....   1.000e-04
   Initial trust radius                 ....   0.400
   Minimum AH scaling param. (alpha)    ....   1.000
   Maximum AH scaling param. (alpha)    .... 1000.000
   Quad. conv. algorithm                .... NR
   White noise on init. David. guess    .... on
   Maximum white noise                  ....   0.010
   Pseudo random numbers                .... off
   Inactive MOs                         .... canonical
   Orbital update algorithm             .... Taylor
   Preconditioner                       .... Diag
   Full preconditioner red. dimension   ....   250
 SOSCF                  CNVSOSCF        .... on
   Start iteration      SOSCFMaxIt      ....   150
   Startup grad/error   SOSCFStart      ....  0.003300
   Hessian update       SOSCFHessUp     .... L-BFGS
 Level Shifting         CNVShift        .... on
   Level shift para.    LevelShift      ....    0.2500
   Turn off err/grad.   ShiftErr        ....    0.0010
 Zerner damping         CNVZerner       .... off
 Static damping         CNVDamp         .... on
   Fraction old density DampFac         ....    0.7000
   Max. Damping (<1)    DampMax         ....    0.9800
   Min. Damping (>=0)   DampMin         ....    0.0000
   Turn off err/grad.   DampErr         ....    0.1000

SCF Procedure:
 Maximum # iterations   MaxIter         ....   125
 SCF integral mode      SCFMode         .... Direct
   Integral package                     .... SHARK and LIBINT hybrid scheme
 Reset frequency        DirectResetFreq ....    20
 Integral Threshold     Thresh          ....  1.000e-12 Eh
 Primitive CutOff       TCut            ....  1.000e-14 Eh

Convergence Tolerance:
 Convergence Check Mode ConvCheckMode   .... Total+1el-Energy
 Convergence forced     ConvForced      .... 1
 Energy Change          TolE            ....  1.000e-09 Eh
 1-El. energy change                    ....  1.000e-06 Eh
 Orbital Gradient       TolG            ....  2.000e-06
 Orbital Rotation angle TolX            ....  2.000e-06
 DIIS Error             TolErr          ....  1.000e-08

------------------------------
INITIAL GUESS: MODEL POTENTIAL
------------------------------
Loading Hartree-Fock densities                     ... done
Calculating cut-offs                               ... done
Initializing the effective Hamiltonian             ... done
Setting up the integral package (SHARK)            ... done
Starting the Coulomb interaction                   ... done (   0.0 sec)
Making the grid                                    ... done (   0.0 sec)
Mapping shells                                     ... done
Starting the XC term evaluation                    ... done (   0.0 sec)
Transforming the Hamiltonian                       ... done (   0.0 sec)
Diagonalizing the Hamiltonian                      ... done (   0.0 sec)
Back transforming the eigenvectors                 ... done (   0.0 sec)
Now organizing SCF variables                       ... done
                      ------------------
                      INITIAL GUESS DONE (   0.1 sec)
                      ------------------
             **** ENERGY FILE WAS UPDATED (AR3LD_2.8_3.6_4.8.en.tmp) ****
Finished Guess after   0.1 sec
Maximum memory used throughout the entire GUESS-calculation: 6.7 MB

-------------------------------------------------------------------------------------------
                                      ORCA LEAN-SCF
                              memory conserving SCF solver
-------------------------------------------------------------------------------------------

----------------------------------------D-I-I-S--------------------------------------------
Iteration    Energy (Eh)           Delta-E    RMSDP     MaxDP     DIISErr   Damp  Time(sec)
-------------------------------------------------------------------------------------------
               ***  Starting incremental Fock matrix formation  ***
    1    -1580.3703936821857496     0.00e+00  1.11e-03  1.79e-02  9.27e-02  0.700   0.6
    2    -1580.3757250581793414    -5.33e-03  8.72e-04  1.30e-02  6.64e-02  0.700   0.5
                               ***Turning on AO-DIIS***
    3    -1580.3796072678073870    -3.88e-03  6.95e-04  9.54e-03  4.73e-02  0.700   0.5
    4    -1580.3824025295348292    -2.80e-03  1.71e-03  2.24e-02  3.32e-02  0.000   0.5
                              *** Initializing SOSCF ***
---------------------------------------S-O-S-C-F--------------------------------------
Iteration    Energy (Eh)           Delta-E    RMSDP     MaxDP     MaxGrad    Time(sec)
--------------------------------------------------------------------------------------
    5    -1580.3892408202996194    -6.84e-03  8.67e-05  1.00e-03  1.06e-03     0.5
               *** Restarting incremental Fock matrix formation ***
    6    -1580.3892501093200735    -9.29e-06  4.12e-05  5.50e-04  2.15e-04     0.6
    7    -1580.3892517286190014    -1.62e-06  1.50e-05  1.78e-04  5.31e-05     0.4
    8    -1580.3892518329762424    -1.04e-07  8.43e-07  1.42e-05  8.22e-06     0.4
    9    -1580.3892518335223940    -5.46e-10  1.62e-07  2.91e-06  1.26e-06     0.4
                 **** Energy Check signals convergence ****

               *****************************************************
               *                     SUCCESS                       *
               *           SCF CONVERGED AFTER   9 CYCLES          *
               *****************************************************

             **** ENERGY FILE WAS UPDATED (AR3LD_2.8_3.6_4.8.en.tmp) ****

----------------
TOTAL SCF ENERGY
----------------

Total Energy       :      -1580.38925183352239 Eh          -43004.57785 eV

Components:
Nuclear Repulsion  :        144.57877298196433 Eh            3934.18842 eV
Electronic Energy  :      -1724.96802481548684 Eh          -46938.76628 eV
One Electron Energy:      -2473.82260904265377 Eh          -67316.13548 eV
Two Electron Energy:        748.85458422716692 Eh           20377.36920 eV

Virial components:
Potential Energy   :      -3160.91928855309970 Eh          -86012.98666 eV
Kinetic Energy     :       1580.53003671957731 Eh           43008.40880 eV
Virial Ratio       :          1.99991092552322

---------------
SCF CONVERGENCE
---------------

  Last Energy change         ...    5.4615e-10  Tolerance :   1.0000e-09
  Last MAX-Density change    ...    2.9138e-06  Tolerance :   1.0000e-08
  Last RMS-Density change    ...    1.6242e-07  Tolerance :   1.0000e-09
  Last DIIS Error            ...    1.0629e-03  Tolerance :   1.0000e-08
  Last Orbital Gradient      ...    1.2577e-06  Tolerance :   2.0000e-06
  Last Orbital Rotation      ...    1.5379e-06  Tolerance :   2.0000e-06


----------------
ORBITAL ENERGIES
----------------

  NO   OCC          E(Eh)            E(eV) 
   0   2.0000    -118.610198     -3227.5476 
   1   2.0000    -118.605719     -3227.4257 
   2   2.0000    -118.605215     -3227.4120 
   3   2.0000     -12.322405      -335.3097 
   4   2.0000     -12.318810      -335.2119 
   5   2.0000     -12.318306      -335.1982 
   6   2.0000      -9.570993      -260.4400 
   7   2.0000      -9.570991      -260.4399 
   8   2.0000      -9.570986      -260.4398 
   9   2.0000      -9.567394      -260.3420 
  10   2.0000      -9.567297      -260.3394 
  11   2.0000      -9.567296      -260.3393 
  12   2.0000      -9.566906      -260.3287 
  13   2.0000      -9.566810      -260.3261 
  14   2.0000      -9.566804      -260.3260 
  15   2.0000      -1.287871       -35.0447 
  16   2.0000      -1.278778       -34.7973 
  17   2.0000      -1.269541       -34.5460 
  18   2.0000      -0.633480       -17.2379 
  19   2.0000      -0.604829       -16.4582 
  20   2.0000      -0.599605       -16.3161 
  21   2.0000      -0.592243       -16.1158 
  22   2.0000      -0.592039       -16.1102 
  23   2.0000      -0.591075       -16.0840 
  24   2.0000      -0.582557       -15.8522 
  25   2.0000      -0.578537       -15.7428 
  26   2.0000      -0.550037       -14.9673 
  27   0.0000       0.119178         3.2430 
  28   0.0000       0.128889         3.5072 
  29   0.0000       0.133289         3.6270 
  30   0.0000       0.134434         3.6581 
  31   0.0000       0.152830         4.1587 
  32   0.0000       0.165981         4.5166 
  33   0.0000       0.169521         4.6129 
  34   0.0000       0.184139         5.0107 
  35   0.0000       0.195725         5.3259 
  36   0.0000       0.209685         5.7058 
  37   0.0000       0.278354         7.5744 
*Only the first 10 virtual orbitals were printed.

                    ********************************
                    * MULLIKEN POPULATION ANALYSIS *
                    ********************************

-------------------------
MULLIKEN FRAGMENT CHARGES
-------------------------
 Fragment   0 :  -0.000432
 Fragment   1 :  -0.001024
 Fragment   2 :   0.001455
Sum of fragment charges:   -0.0000000

---------------------------------
MULLIKEN FRAGMENT OVERLAP CHARGES
---------------------------------
                  0          1          2    
      0      18.000880   0.001908  -0.002804
      1       0.001908  18.061913  -0.123686
      2      -0.002804  -0.123686  18.061789

-----------------------
MULLIKEN ATOMIC CHARGES
-----------------------
   0 Ar:   -0.000432
   1 Ar:   -0.001024
   2 Ar:    0.001455
Sum of atomic charges:   -0.0000000

--------------------------------
MULLIKEN REDUCED ORBITAL CHARGES
--------------------------------
  0 Ars       :     5.999310  s :     5.999310
      pz      :     3.999969  p :    12.000855
      px      :     4.000744
      py      :     4.000141
      dz2     :     0.000051  d :     0.000267
      dxz     :     0.000020
      dyz     :     0.000010
      dx2y2   :     0.000047
      dxy     :     0.000140

  1 Ars       :     5.995582  s :     5.995582
      pz      :     3.999681  p :    12.004050
      px      :     4.002254
      py      :     4.002115
      dz2     :     0.000174  d :     0.001392
      dxz     :     0.000147
      dyz     :     0.000184
      dx2y2   :     0.000349
      dxy     :     0.000537

  2 Ars       :     5.993764  s :     5.993764
      pz      :     3.999631  p :    12.003163
      px      :     4.002142
      py      :     4.001389
      dz2     :     0.000186  d :     0.001617
      dxz     :     0.000165
      dyz     :     0.000193
      dx2y2   :     0.000376
      dxy     :     0.000698



                     *******************************
                     * LOEWDIN POPULATION ANALYSIS *
                     *******************************

------------------------
LOEWDIN FRAGMENT CHARGES
------------------------
 Fragment   0 :   0.001466
 Fragment   1 :   0.000910
 Fragment   2 :  -0.002376

----------------------------
LOEWDIN FRAGMENT BOND ORDERS
----------------------------
                  0          1          2    
      0      17.998534   0.003401   0.064518
      1       0.003401  17.999090   0.287890
      2       0.064518   0.287890  18.002376

----------------------
LOEWDIN ATOMIC CHARGES
----------------------
   0 Ar:    0.001466
   1 Ar:    0.000910
   2 Ar:   -0.002376

-------------------------------
LOEWDIN REDUCED ORBITAL CHARGES
-------------------------------
  0 Ars       :     5.993369  s :     5.993369
      pz      :     3.999938  p :    12.004241
      px      :     4.002435
      py      :     4.001869
      dz2     :     0.000215  d :     0.000924
      dxz     :     0.000014
      dyz     :     0.000006
      dx2y2   :     0.000104
      dxy     :     0.000585

  1 Ars       :     5.973414  s :     5.973414
      pz      :     3.998461  p :    12.002169
      px      :     4.001232
      py      :     4.002476
      dz2     :     0.005151  d :     0.023508
      dxz     :     0.000657
      dyz     :     0.000821
      dx2y2   :     0.001636
      dxy     :     0.015244

  2 Ars       :     5.969025  s :     5.969025
      pz      :     3.998608  p :    12.009015
      px      :     4.004435
      py      :     4.005972
      dz2     :     0.005388  d :     0.024335
      dxz     :     0.000663
      dyz     :     0.000834
      dx2y2   :     0.001729
      dxy     :     0.015722



                      *****************************
                      * MAYER POPULATION ANALYSIS *
                      *****************************

  NA   - Mulliken gross atomic population
  ZA   - Total nuclear charge
  QA   - Mulliken gross atomic charge
  VA   - Mayer's total valence
  BVA  - Mayer's bonded valence
  FA   - Mayer's free valence

  ATOM       NA         ZA         QA         VA         BVA        FA
  0 Ar    18.0004    18.0000    -0.0004     0.0046     0.0046    -0.0000
  1 Ar    18.0010    18.0000    -0.0010    -0.0246    -0.0246    -0.0000
  2 Ar    17.9985    18.0000     0.0015    -0.0236    -0.0236    -0.0000

  Mayer bond orders larger than 0.100000
  => no bond orders to print

-------
TIMINGS
-------

Total SCF time: 0 days 0 hours 0 min 4 sec 

Total time                  ....       4.378 sec
Sum of individual times     ....       4.370 sec  ( 99.8%)

SCF preparation             ....       0.060 sec  (  1.4%)
Fock matrix formation       ....       4.287 sec  ( 97.9%)
  Startup                   ....       0.001 sec  (  0.0% of F)
  Coulomb+Exchange Fock     ....       4.283 sec  ( 99.9% of F)
Diagonalization             ....       0.000 sec  (  0.0%)
Density matrix formation    ....       0.004 sec  (  0.1%)
Total Energy calculation    ....       0.001 sec  (  0.0%)
Population analysis         ....       0.002 sec  (  0.0%)
Orbital Transformation      ....       0.004 sec  (  0.1%)
Orbital Orthonormalization  ....       0.000 sec  (  0.0%)
DIIS solution               ....       0.010 sec  (  0.2%)
SOSCF solution              ....       0.004 sec  (  0.1%)
Finished LeanSCF after   4.4 sec

Maximum memory used throughout the entire LEANSCF-calculation: 8.6 MB

------------------------------------------------------------------------------
                         ORCA PROPERTY INTEGRAL CALCULATIONS
------------------------------------------------------------------------------

GBWName                                   ... AR3LD_2.8_3.6_4.8.gbw
Number of atoms                           ...      3
Number of basis functions                 ...    150
Max core memory                           ...   1024 MB

Dipole integrals                          ... YES
Quadrupole integrals                      ...  NO
Linear momentum integrals                 ... YES
Angular momentum integrals                ... YES
Higher moments length integrals           ...  NO
Higher moments velocity integrals         ...  NO
Kinetic energy integrals                  ...  NO
GIAO right hand sides                     ...  NO
GIAO dipole derivative integrals          ...  NO
SOC integrals                             ...  NO
EPR diamagnetic integrals (GIAO)          ...  NO
EPR gauge integrals                       ...  NO
Field gradient integrals                  ...  NO (   0 nuclei)
Spin-dipole/Fermi contact integrals       ...  NO (   0 nuclei)
Contact density integrals                 ...  NO (   0 nuclei)
Nucleus-orbit integrals                   ...  NO (   0 nuclei)
Geometric perturbations                   ...  NO (   3 nuclei)

Choice of electric origin   ... Center of mass
Position of electric origin ... (  4.8713,  1.3146,  0.0000) 
Choice of magnetic origin   ... GIAO
Position of magnetic origin ... (  0.0000,  0.0000,  0.0000) 

Calculating integrals                     ... Electric Dipole (Length)     done (  0.0 sec)
Calculating integrals                     ... Linear Momentum              done (  0.0 sec)
Calculating integrals                     ... Angular Momentum  (ElOri)    done (  0.0 sec)

Property integrals calculated in   0.0 sec

Maximum memory used throughout the entire PROPINT-calculation: 6.8 MB


--------------------------------------------------------------------------------
                             ORCA-MATRIX DRIVEN CI
--------------------------------------------------------------------------------


Wavefunction type
-----------------
Correlation treatment                      ...      CCSD     
Single excitations                         ... ON
Orbital optimization                       ... OFF
Calculation of Z vector                    ... OFF
Calculation of Brueckner orbitals          ... OFF
Perturbative triple excitations            ... OFF
Calculation of F12 correction              ... OFF
Frozen core treatment                      ... chemical core (30 el)
Reference Wavefunction                     ... RHF
  Internal Orbitals:    15 ...   26 ( 12 MO's/ 24 electrons)
  Virtual  Orbitals:    27 ...   80 ( 54 MO's              )
Number of AO's                             ...     81
Number of electrons                        ...     54
Number of correlated electrons             ...     24

Algorithmic settings
--------------------
Integral transformation                    ... All integrals via the RI transformation
K(C) Formation                             ... RI-DLPNO
   PNO-Integral Storage                    ... ON DISK
   PNO occupation number cut-off           ... 3.330e-07
   Singles PNO occupation number cut-off   ... 9.990e-09
   PNO Mulliken prescreening cut-off       ... 1.000e-03
   Domain cut-off (Mulliken population)    ... 1.000e-03
   PNO Normalization                       ...    1
Maximum number of iterations               ...        50
Convergence tolerance (max. residuum)      ... 1.000e-06
Level shift for amplitude update           ... 2.000e-01
Maximum number of DIIS vectors             ...         7
DIIS turned on at iteration                ...         0
Damping before turning on DIIS             ...     0.500
Damping after turning on DIIS              ...     0.000
Pair specific amplitude update             ... OFF
Natural orbital iterations                 ... OFF
Perturbative natural orbital generation    ... OFF
Printlevel                                 ... 2

Singles Fock matrix elements calculated using PNOs.

Memory handling:
----------------
Maximum memory for working arrays          ...    512 MB
Data storage in matrix containers          ... UNCOMPRESSED
Data type for integral storage             ... DOUBLE
In-Core Storage of quantities:
   Amplitudes+Sigma Vector      ... NO
   J+K operators                ... NO
   DIIS vectors                 ... NO
   3-external integrals         ... NO
   4-external integrals         ... NO

Localization treatment:
-----------------------
Localization option                        ...    2
Localization threshhold                    ... -1.0e+00
Using relative localization threshhold     ... 1.0e-08
Neglect threshold for strong pairs         ... 1.000e-05 Eh
Prescreening threshold for very weak pairs ... 1.000e-07 Eh
Using randomized seed for localization     ... on

Initializing the integral package          ... done
Localizing the valence orbitals
Localizing the valence orbitals
------------------------------------------------------------------------------
                           ORCA ORBITAL LOCALIZATION
------------------------------------------------------------------------------

Input orbitals are from                  ... AR3LD_2.8_3.6_4.8.proc0.gbw
Output orbitals are to                   ... AR3LD_2.8_3.6_4.8.proc0.loc
Max. number of iterations                ... 128
Localizations seeded randomly            ... on
Convergence tolerance                    ... 2.000e-07
Using relative localization threshhold   ... 1.000e-08
Threshold for strong local MOs           ... 9.500e-01
Threshold for bond MOs                   ... 8.500e-01
Operator                                 ... 0
Orbital range for localization           ... 15 to 26
Localization criterion                   ... FOSTER-BOYS
Doing the dipole integrals     ... o.k.
Entering Jacobi type localization:
Using Cholesky decomposition as initial guess.
Initial value of the localization sum :   208.798185
ITERATION   0 : L=  215.6429660637 DL=  6.84e+00 (MAX-T)=  45.000 
ITERATION   1 : L=  215.6573568787 DL=  1.44e-02 (MAX-T)=   3.605 
ITERATION   2 : L=  215.6589807572 DL=  1.62e-03 (MAX-T)=   1.379 
ITERATION   3 : L=  215.6613595512 DL=  2.38e-03 (MAX-T)=   1.175 
ITERATION   4 : L=  215.6633932890 DL=  2.03e-03 (MAX-T)=   1.025 
ITERATION   5 : L=  215.6649629723 DL=  1.57e-03 (MAX-T)=   0.904 
ITERATION   6 : L=  215.6662769288 DL=  1.31e-03 (MAX-T)=   0.833 
ITERATION   7 : L=  215.6669969775 DL=  7.20e-04 (MAX-T)=   0.802 
ITERATION   8 : L=  215.6680896827 DL=  1.09e-03 (MAX-T)=   0.774 
ITERATION   9 : L=  215.6689499986 DL=  8.60e-04 (MAX-T)=   0.689 
ITERATION  10 : L=  215.6695489978 DL=  5.99e-04 (MAX-T)=   0.493 
ITERATION  11 : L=  215.6701945432 DL=  6.46e-04 (MAX-T)=   0.568 
ITERATION  12 : L=  215.6706744107 DL=  4.80e-04 (MAX-T)=   0.406 
ITERATION  13 : L=  215.6710702424 DL=  3.96e-04 (MAX-T)=   0.423 
ITERATION  14 : L=  215.6715291466 DL=  4.59e-04 (MAX-T)=   0.411 
ITERATION  15 : L=  215.6719253054 DL=  3.96e-04 (MAX-T)=   0.401 
ITERATION  16 : L=  215.6724135147 DL=  4.88e-04 (MAX-T)=   0.517 
ITERATION  17 : L=  215.6730518217 DL=  6.38e-04 (MAX-T)=   0.492 
ITERATION  18 : L=  215.6735463060 DL=  4.94e-04 (MAX-T)=   0.506 
ITERATION  19 : L=  215.6742736159 DL=  7.27e-04 (MAX-T)=   0.686 
ITERATION  20 : L=  215.6750575131 DL=  7.84e-04 (MAX-T)=   0.575 
ITERATION  21 : L=  215.6760049911 DL=  9.47e-04 (MAX-T)=   0.828 
ITERATION  22 : L=  215.6771882460 DL=  1.18e-03 (MAX-T)=   0.814 
ITERATION  23 : L=  215.6782440682 DL=  1.06e-03 (MAX-T)=   0.916 
ITERATION  24 : L=  215.6795598805 DL=  1.32e-03 (MAX-T)=   0.885 
ITERATION  25 : L=  215.6810406392 DL=  1.48e-03 (MAX-T)=   1.125 
ITERATION  26 : L=  215.6827864054 DL=  1.75e-03 (MAX-T)=   0.868 
ITERATION  27 : L=  215.6846647426 DL=  1.88e-03 (MAX-T)=   0.967 
ITERATION  28 : L=  215.6860705343 DL=  1.41e-03 (MAX-T)=   1.049 
ITERATION  29 : L=  215.6878414409 DL=  1.77e-03 (MAX-T)=   1.017 
ITERATION  30 : L=  215.6891052308 DL=  1.26e-03 (MAX-T)=   0.994 
ITERATION  31 : L=  215.6898103862 DL=  7.05e-04 (MAX-T)=   0.974 
ITERATION  32 : L=  215.6908225094 DL=  1.01e-03 (MAX-T)=   0.841 
ITERATION  33 : L=  215.6917305627 DL=  9.08e-04 (MAX-T)=   0.758 
ITERATION  34 : L=  215.6926965847 DL=  9.66e-04 (MAX-T)=   0.837 
ITERATION  35 : L=  215.6934194170 DL=  7.23e-04 (MAX-T)=   0.778 
ITERATION  36 : L=  215.6937694361 DL=  3.50e-04 (MAX-T)=   0.663 
ITERATION  37 : L=  215.6942374269 DL=  4.68e-04 (MAX-T)=   0.634 
ITERATION  38 : L=  215.6945983079 DL=  3.61e-04 (MAX-T)=   0.657 
ITERATION  39 : L=  215.6949877805 DL=  3.89e-04 (MAX-T)=   0.577 
ITERATION  40 : L=  215.6953606903 DL=  3.73e-04 (MAX-T)=   0.510 
ITERATION  41 : L=  215.6956761635 DL=  3.15e-04 (MAX-T)=   0.393 
ITERATION  42 : L=  215.6958829680 DL=  2.07e-04 (MAX-T)=   0.403 
ITERATION  43 : L=  215.6960405192 DL=  1.58e-04 (MAX-T)=   0.342 
ITERATION  44 : L=  215.6961697594 DL=  1.29e-04 (MAX-T)=   0.310 
ITERATION  45 : L=  215.6963188104 DL=  1.49e-04 (MAX-T)=   0.321 
ITERATION  46 : L=  215.6964340902 DL=  1.15e-04 (MAX-T)=   0.244 
ITERATION  47 : L=  215.6964927111 DL=  5.86e-05 (MAX-T)=   0.187 
ITERATION  48 : L=  215.6965812361 DL=  8.85e-05 (MAX-T)=   0.205 
ITERATION  49 : L=  215.6966442231 DL=  6.30e-05 (MAX-T)=   0.186 
ITERATION  50 : L=  215.6966942952 DL=  5.01e-05 (MAX-T)=   0.148 
ITERATION  51 : L=  215.6967279734 DL=  3.37e-05 (MAX-T)=   0.111 
ITERATION  52 : L=  215.6967724111 DL=  4.44e-05 (MAX-T)=   0.135 
ITERATION  53 : L=  215.6968119548 DL=  3.95e-05 (MAX-T)=   0.127 
ITERATION  54 : L=  215.6968439185 DL=  3.20e-05 (MAX-T)=   0.107 
ITERATION  55 : L=  215.6968693325 DL=  2.54e-05 (MAX-T)=   0.081 
ITERATION  56 : L=  215.6969002463 DL=  3.09e-05 (MAX-T)=   0.115 
ITERATION  57 : L=  215.6969219624 DL=  2.17e-05 (MAX-T)=   0.099 
ITERATION  58 : L=  215.6969422040 DL=  2.02e-05 (MAX-T)=   0.093 
ITERATION  59 : L=  215.6969612471 DL=  1.90e-05 (MAX-T)=   0.090 
ITERATION  60 : L=  215.6969876630 DL=  2.64e-05 (MAX-T)=   0.091 
ITERATION  61 : L=  215.6970076884 DL=  2.00e-05 (MAX-T)=   0.077 
ITERATION  62 : L=  215.6970283405 DL=  2.07e-05 (MAX-T)=   0.094 
ITERATION  63 : L=  215.6970499203 DL=  2.16e-05 (MAX-T)=   0.100 
ITERATION  64 : L=  215.6970630823 DL=  1.32e-05 (MAX-T)=   0.083 
ITERATION  65 : L=  215.6970841952 DL=  2.11e-05 (MAX-T)=   0.100 
ITERATION  66 : L=  215.6971010550 DL=  1.69e-05 (MAX-T)=   0.105 
ITERATION  67 : L=  215.6971177673 DL=  1.67e-05 (MAX-T)=   0.087 
ITERATION  68 : L=  215.6971369962 DL=  1.92e-05 (MAX-T)=   0.086 
ITERATION  69 : L=  215.6971547597 DL=  1.78e-05 (MAX-T)=   0.075 
ITERATION  70 : L=  215.6971743968 DL=  1.96e-05 (MAX-T)=   0.088 
ITERATION  71 : L=  215.6971878663 DL=  1.35e-05 (MAX-T)=   0.064 
ITERATION  72 : L=  215.6971985803 DL=  1.07e-05 (MAX-T)=   0.073 
ITERATION  73 : L=  215.6972155906 DL=  1.70e-05 (MAX-T)=   0.082 
ITERATION  74 : L=  215.6972307000 DL=  1.51e-05 (MAX-T)=   0.076 
ITERATION  75 : L=  215.6972425805 DL=  1.19e-05 (MAX-T)=   0.074 
ITERATION  76 : L=  215.6972606152 DL=  1.80e-05 (MAX-T)=   0.087 
ITERATION  77 : L=  215.6972756203 DL=  1.50e-05 (MAX-T)=   0.072 
ITERATION  78 : L=  215.6972878598 DL=  1.22e-05 (MAX-T)=   0.078 
ITERATION  79 : L=  215.6973061769 DL=  1.83e-05 (MAX-T)=   0.093 
ITERATION  80 : L=  215.6973197642 DL=  1.36e-05 (MAX-T)=   0.068 
ITERATION  81 : L=  215.6973336022 DL=  1.38e-05 (MAX-T)=   0.064 
ITERATION  82 : L=  215.6973504249 DL=  1.68e-05 (MAX-T)=   0.091 
ITERATION  83 : L=  215.6973646205 DL=  1.42e-05 (MAX-T)=   0.080 
ITERATION  84 : L=  215.6973794362 DL=  1.48e-05 (MAX-T)=   0.083 
ITERATION  85 : L=  215.6973916795 DL=  1.22e-05 (MAX-T)=   0.081 
ITERATION  86 : L=  215.6974042993 DL=  1.26e-05 (MAX-T)=   0.061 
ITERATION  87 : L=  215.6974171446 DL=  1.28e-05 (MAX-T)=   0.084 
ITERATION  88 : L=  215.6974297402 DL=  1.26e-05 (MAX-T)=   0.069 
ITERATION  89 : L=  215.6974431743 DL=  1.34e-05 (MAX-T)=   0.071 
ITERATION  90 : L=  215.6974572182 DL=  1.40e-05 (MAX-T)=   0.064 
ITERATION  91 : L=  215.6974672845 DL=  1.01e-05 (MAX-T)=   0.062 
ITERATION  92 : L=  215.6974754540 DL=  8.17e-06 (MAX-T)=   0.066 
ITERATION  93 : L=  215.6974864206 DL=  1.10e-05 (MAX-T)=   0.078 
ITERATION  94 : L=  215.6974994663 DL=  1.30e-05 (MAX-T)=   0.074 
ITERATION  95 : L=  215.6975105368 DL=  1.11e-05 (MAX-T)=   0.068 
ITERATION  96 : L=  215.6975213296 DL=  1.08e-05 (MAX-T)=   0.069 
ITERATION  97 : L=  215.6975331546 DL=  1.18e-05 (MAX-T)=   0.066 
ITERATION  98 : L=  215.6975437405 DL=  1.06e-05 (MAX-T)=   0.070 
ITERATION  99 : L=  215.6975551067 DL=  1.14e-05 (MAX-T)=   0.059 
ITERATION 100 : L=  215.6975638773 DL=  8.77e-06 (MAX-T)=   0.060 
ITERATION 101 : L=  215.6975736801 DL=  9.80e-06 (MAX-T)=   0.069 
ITERATION 102 : L=  215.6975833779 DL=  9.70e-06 (MAX-T)=   0.068 
ITERATION 103 : L=  215.6975932758 DL=  9.90e-06 (MAX-T)=   0.070 
ITERATION 104 : L=  215.6976032342 DL=  9.96e-06 (MAX-T)=   0.068 
ITERATION 105 : L=  215.6976119248 DL=  8.69e-06 (MAX-T)=   0.068 
ITERATION 106 : L=  215.6976213638 DL=  9.44e-06 (MAX-T)=   0.062 
ITERATION 107 : L=  215.6976305179 DL=  9.15e-06 (MAX-T)=   0.056 
ITERATION 108 : L=  215.6976381304 DL=  7.61e-06 (MAX-T)=   0.050 
ITERATION 109 : L=  215.6976457869 DL=  7.66e-06 (MAX-T)=   0.063 
ITERATION 110 : L=  215.6976539955 DL=  8.21e-06 (MAX-T)=   0.061 
ITERATION 111 : L=  215.6976614380 DL=  7.44e-06 (MAX-T)=   0.059 
ITERATION 112 : L=  215.6976686613 DL=  7.22e-06 (MAX-T)=   0.065 
ITERATION 113 : L=  215.6976776092 DL=  8.95e-06 (MAX-T)=   0.065 
ITERATION 114 : L=  215.6976847883 DL=  7.18e-06 (MAX-T)=   0.055 
ITERATION 115 : L=  215.6976924348 DL=  7.65e-06 (MAX-T)=   0.053 
ITERATION 116 : L=  215.6976990797 DL=  6.64e-06 (MAX-T)=   0.060 
ITERATION 117 : L=  215.6977068306 DL=  7.75e-06 (MAX-T)=   0.051 
ITERATION 118 : L=  215.6977124078 DL=  5.58e-06 (MAX-T)=   0.049 
ITERATION 119 : L=  215.6977182261 DL=  5.82e-06 (MAX-T)=   0.047 
ITERATION 120 : L=  215.6977251499 DL=  6.92e-06 (MAX-T)=   0.053 
ITERATION 121 : L=  215.6977324245 DL=  7.27e-06 (MAX-T)=   0.061 
ITERATION 122 : L=  215.6977389984 DL=  6.57e-06 (MAX-T)=   0.051 
ITERATION 123 : L=  215.6977461764 DL=  7.18e-06 (MAX-T)=   0.055 
ITERATION 124 : L=  215.6977515231 DL=  5.35e-06 (MAX-T)=   0.050 
ITERATION 125 : L=  215.6977575979 DL=  6.07e-06 (MAX-T)=   0.054 
ITERATION 126 : L=  215.6977636738 DL=  6.08e-06 (MAX-T)=   0.048 
ITERATION 127 : L=  215.6977691767 DL=  5.50e-06 (MAX-T)=   0.057 
MAXIMUM NO OF ITERATIONS EXCEEDED - LOCALIZATION NOT CONVERGED


--------------------------------------------------------------------------------
                    LOCALIZED MOLECULAR ORBITAL COMPOSITIONS
--------------------------------------------------------------------------------

The Mulliken populations for each LMO on each atom are computed
The LMO`s will be ordered according to atom index and type
  (A) Strongly localized MO`s have populations of >=0.950 on one atom
  (B) Two center bond orbitals have populations of >=0.850 on two atoms
  (C) Other MO`s are considered to be `delocalized`

FOUND  -  12 strongly local MO`s
       -   0 two center bond MO`s
       -   0 significantly delocalized MO`s

Rather strongly localized orbitals:
MO  26:   2Ar -   1.002053
MO  25:   2Ar -   1.001823
MO  24:   2Ar -   1.001870
MO  23:   2Ar -   1.001900
MO  22:   1Ar -   1.002121
MO  21:   1Ar -   1.002021
MO  20:   1Ar -   1.001959
MO  19:   1Ar -   1.002038
MO  18:   0Ar -   0.999820
MO  17:   0Ar -   0.999863
MO  16:   0Ar -   1.000240
MO  15:   0Ar -   0.999857
Localized MO's were stored in: AR3LD_2.8_3.6_4.8.proc0.loc

Localizing the core orbitals
Localization sum:   261.382231563 
------------------------------------------------------------------------------
                           ORCA ORBITAL LOCALIZATION
------------------------------------------------------------------------------

Input orbitals are from                  ... AR3LD_2.8_3.6_4.8.proc0.loc
Output orbitals are to                   ... AR3LD_2.8_3.6_4.8.proc0.loc
Max. number of iterations                ... 128
Localizations seeded randomly            ... on
Convergence tolerance                    ... 2.000e-07
Using relative localization threshhold   ... 1.000e-08
Threshold for strong local MOs           ... 9.500e-01
Threshold for bond MOs                   ... 8.500e-01
Operator                                 ... 0
Orbital range for localization           ... 0 to 14
Localization criterion                   ... FOSTER-BOYS
Doing the dipole integrals     ... o.k.
Entering Jacobi type localization:
Using Cholesky decomposition as initial guess.
Initial value of the localization sum :   260.925748
ITERATION   0 : L=  261.3783571631 DL=  4.53e-01 (MAX-T)=  45.000 
ITERATION   1 : L=  261.3822121230 DL=  3.85e-03 (MAX-T)=   7.702 
ITERATION   2 : L=  261.3822301840 DL=  1.81e-05 (MAX-T)=   0.444 
ITERATION   3 : L=  261.3822315634 DL=  1.38e-06 (MAX-T)=   0.133 
LOCALIZATION SUM CONVERGED


--------------------------------------------------------------------------------
                    LOCALIZED MOLECULAR ORBITAL COMPOSITIONS
--------------------------------------------------------------------------------

The Mulliken populations for each LMO on each atom are computed
The LMO`s will be ordered according to atom index and type
  (A) Strongly localized MO`s have populations of >=0.950 on one atom
  (B) Two center bond orbitals have populations of >=0.850 on two atoms
  (C) Other MO`s are considered to be `delocalized`

FOUND  -  15 strongly local MO`s
       -   0 two center bond MO`s
       -   0 significantly delocalized MO`s

Rather strongly localized orbitals:
MO  14:   2Ar -   1.000065
MO  13:   2Ar -   1.000001
MO  12:   2Ar -   1.000045
MO  11:   2Ar -   1.000032
MO  10:   2Ar -   1.000027
MO   9:   1Ar -   1.000000
MO   8:   1Ar -   1.000038
MO   7:   1Ar -   1.000030
MO   6:   1Ar -   1.000015
MO   5:   1Ar -   1.000047
MO   4:   0Ar -   1.000013
MO   3:   0Ar -   1.000000
MO   2:   0Ar -   1.000009
MO   1:   0Ar -   1.000006
MO   0:   0Ar -   1.000011
Localized MO's were stored in: AR3LD_2.8_3.6_4.8.proc0.loc

Warning: reference  - re-canonicalizations have been set to INT 1 VIRT 1
Warning: internal orbitals are localized - no re-canonicalization of internal orbitals
Warning: UsePNO is turned on - no re-canonicalization of internal and virtual orbitals
Fock densities were made 
Making Fock matrix and reference energy:

--------------------------
CLOSED-SHELL FOCK OPERATOR
--------------------------

Time needed for Fock operator              ...            0.878 sec
Reference energy                           ...  -1580.389251834

--------------
DLPNO SETTINGS (2015 fully linear scaling implementation)
--------------

TCutMKN:           1.000e-03
TCutPAO:           1.000e-03
TCutPNO:           3.330e-07
TCutPNOSingles:    9.990e-09
TCutEN:            9.700e-01
TCutPAOExt:        1.000e-01
TCutPairs:         1.000e-05
TCutPre:           1.000e-07
TCutOSV:           1.000e-06
TCutDOij:          1.000e-05
TCutDO:            1.000e-02
TCutC:             1.000e-04
TCutCPAO:          1.000e-03
TCutCMO:           1.000e-03
TScaleDOMP2PreScr: 2.000e+00
TScaleMKNMP2PreScr:1.000e+01
TScalePNOMP2PreScr:1.000e+00
PAO overlap thresh 1.000e-08
Using PNOs for Singles Fock computation
Use new domains
Use fully linear algorithm

--------------------------
Mulliken population of the LMOs            ... ok
Performing proximity check                 ... No problems found
Calculating differential overlap integrals ... ok

------------------------
PRESCREENING OF HF PAIRS
------------------------

   .... Finished loop over pairs

                  ============================================
                    30 of   78 PAIRS WERE SKIPPED as HF PAIRS
                  ============================================

Total time spent in skipping HF pairs                 ...     0.000 sec
--------------------------
ELECTRON PAIR PRESCREENING
--------------------------

Dipole-based pair screening          .... used

   TCutDOij = 1.000000e-05
   TCutPre  = 1.000000e-07
   .... Finished loop over pairs
Total time spent in the prescreening                  ...     0.000 sec
sum of pair energies estimated for screened out pairs ...       0.000000000000 Eh
Thresholds for map construction and integral transformation for crude MP2:
   TCutMKN                    ...     1.0e-02
   TCutDO                     ...     2.0e-02
   TCutPairs                  ...     1.0e-05
   TCutPNO_CrudeMP2           ...     3.3e-07
   TCutPNOSingles_CrudeMP2    ...     1.0e-08
--------------------------------
LOCAL RI TRANSFORMATION (IAVPAO)
--------------------------------

Orbital window:      15 to 26
Number of PAOs:      81
Basis functions:     81 (33 shells)
Aux. functions:     276 (84 shells)
Use SHARK:           on
Have SHARK:         yes

Processing maps (0.0 sec)
Average map sizes:
   Aux shells -> MOs              12.0
   Aux shells -> PAOs             81.0
   MOs        -> AO shells        28.4
   PAOs       -> AO shells        33.0

Calculating integrals (0.1 sec, 2.050 MB)
Sorting integrals (0.0 sec, 2.047 MB)
Total time for the integral transformation: 0.1 sec
--------------------------------
INITIAL GUESS AND PNO GENERATION
--------------------------------

Populations of internal orbitals onto Fragments:
  15:      1.000    0.000    0.000  assigned to fragment   1
  16:      1.000    0.000    0.000  assigned to fragment   1
  17:      1.000    0.000    0.000  assigned to fragment   1
  18:      1.000    0.000    0.000  assigned to fragment   1
  19:      0.000    1.002    0.002  assigned to fragment   2
  20:      0.000    1.002    0.002  assigned to fragment   2
  21:      0.000    1.002    0.002  assigned to fragment   2
  22:      0.000    1.002    0.002  assigned to fragment   2
  23:      0.000    0.002    1.002  assigned to fragment   3
  24:      0.000    0.002    1.002  assigned to fragment   3
  25:      0.000    0.002    1.002  assigned to fragment   3
  26:      0.000    0.002    1.002  assigned to fragment   3

Summary assignment:
   4 orbitals assigned to fragment   1
   4 orbitals assigned to fragment   2
   4 orbitals assigned to fragment   3

PNO truncation parameters                   .... 
    PAOOverlapThresh   =        1.000e-08

Pair selection                          .... 
  modified with fragment specific keywords
  Pairs will be selected according to these
  intra(inter)fragment cutoffs
  1 <-> 1
    Intrafragment pairs 1 <-> 1 neglected for CCSD
  1 <-> 2
    TCutPairs          =        1.000e-05
    TCutPNO            =        3.330e-07
    TCutMKN            =        1.000e-02
    TCutDO             =        2.000e-02
    TCutPNOSingles     =        9.990e-09
    TCutMP2Pairs       =        1.000e-06
  1 <-> 3
    TCutPairs          =        1.000e-05
    TCutPNO            =        3.330e-07
    TCutMKN            =        1.000e-02
    TCutDO             =        2.000e-02
    TCutPNOSingles     =        9.990e-09
    TCutMP2Pairs       =        1.000e-06
  2 <-> 2
    Intrafragment pairs 2 <-> 2 neglected for CCSD
  2 <-> 3
    TCutPairs          =        1.000e-05
    TCutPNO            =        3.330e-07
    TCutMKN            =        1.000e-02
    TCutDO             =        2.000e-02
    TCutPNOSingles     =        9.990e-09
    TCutMP2Pairs       =        1.000e-06
  3 <-> 3
    Intrafragment pairs 3 <-> 3 neglected for CCSD

Type of local MP2 treatment                 .... semi-local MP2
Strategy for PNO selection                  .... occupation number selection
Pair density normalization                  .... MP2 norm
Spin component scaling                      .... not used

   .... Finished loop over pairs
Making pair pair interaction lists          ... done

                       ===========================
                         34 OF   60 PAIRS ARE KEPT CCSD PAIRS
                         14 OF   60 PAIRS ARE KEPT MP2 PAIRS
                         12 OF   60 PAIRS ARE SKIPPED
                       ===========================

Total time spent in the initial guess                 ...     0.136 sec
SL-MP2 correlation energy (all non-screened pairs)    ...      -0.004350241259 Eh

Initial PNO correlation energy                        ...      -0.004167052150 Eh
sum of pair energies prescreened and skipped MP2 pairs...       0.000000000000 Eh
sum of pair energies of crude MP2 skipped pairs only  ...       0.000000000000 Eh
sum of MP2 pair energies for pairs that were not kept ...      -0.000093495718 Eh
sum of PNO error estimates for the kept pairs         ...      -0.000089693391 Eh
                                                          --------------------
sum of all corrections                                         -0.000183189109
Initial total correlation energy                               -0.004350241259
Thresholds for map construction and integral transformation for fine MP2 and CCSD(T) calculation:
   TCutMKN   ...     1.0e-03
   TCutDO    ...     1.0e-02
   TCutPairs ...     1.0e-05
   TCutCMO   ...     1.0e-03
   TCutCPAO  ...     1.0e-03

--------------------------------
LOCAL RI TRANSFORMATION (IAVPAO)
--------------------------------

Orbital window:      15 to 26
Number of PAOs:      81
Basis functions:     81 (33 shells)
Aux. functions:     276 (84 shells)
Use SHARK:           on
Have SHARK:         yes

Processing maps (0.0 sec)
Average map sizes:
   Aux shells -> MOs              12.0
   Aux shells -> PAOs             81.0
   MOs        -> AO shells        28.4
   PAOs       -> AO shells        33.0

Calculating integrals (0.1 sec, 2.050 MB)
Sorting integrals (0.0 sec, 2.047 MB)
Total time for the integral transformation: 0.1 sec
--------------------------------
INITIAL GUESS AND PNO GENERATION
--------------------------------

Populations of internal orbitals onto Fragments:
  15:      1.000    0.000    0.000  assigned to fragment   1
  16:      1.000    0.000    0.000  assigned to fragment   1
  17:      1.000    0.000    0.000  assigned to fragment   1
  18:      1.000    0.000    0.000  assigned to fragment   1
  19:      0.000    1.002    0.002  assigned to fragment   2
  20:      0.000    1.002    0.002  assigned to fragment   2
  21:      0.000    1.002    0.002  assigned to fragment   2
  22:      0.000    1.002    0.002  assigned to fragment   2
  23:      0.000    0.002    1.002  assigned to fragment   3
  24:      0.000    0.002    1.002  assigned to fragment   3
  25:      0.000    0.002    1.002  assigned to fragment   3
  26:      0.000    0.002    1.002  assigned to fragment   3

Summary assignment:
   4 orbitals assigned to fragment   1
   4 orbitals assigned to fragment   2
   4 orbitals assigned to fragment   3

PNO truncation parameters                   .... 
    PAOOverlapThresh   =        1.000e-08

Pair selection                          .... 
  modified with fragment specific keywords
  Pairs will be selected according to these
  intra(inter)fragment cutoffs
  1 <-> 1
    Intrafragment pairs 1 <-> 1 neglected for CCSD
  1 <-> 2
    TCutPairs          =        1.000e-05
    TCutPNO            =        3.330e-07
    TCutMKN            =        1.000e-03
    TCutDO             =        1.000e-02
    TCutPNOSingles     =        9.990e-09
    TCutMP2Pairs       =        1.000e-06
  1 <-> 3
    TCutPairs          =        1.000e-05
    TCutPNO            =        3.330e-07
    TCutMKN            =        1.000e-03
    TCutDO             =        1.000e-02
    TCutPNOSingles     =        9.990e-09
    TCutMP2Pairs       =        1.000e-06
  2 <-> 2
    Intrafragment pairs 2 <-> 2 neglected for CCSD
  2 <-> 3
    TCutPairs          =        1.000e-05
    TCutPNO            =        3.330e-07
    TCutMKN            =        1.000e-03
    TCutDO             =        1.000e-02
    TCutPNOSingles     =        9.990e-09
    TCutMP2Pairs       =        1.000e-06
  3 <-> 3
    Intrafragment pairs 3 <-> 3 neglected for CCSD

Type of local MP2 treatment                 .... semi-local MP2
Strategy for PNO selection                  .... occupation number selection
Pair density normalization                  .... MP2 norm
Spin component scaling                      .... not used

   .... Finished loop over pairs

 PNO Occupation Number Statistics: 
  | Av. % of trace(Dij) retained        ...  98.643496388578
  | sigma^2 in % of trace(Dij) retained ...   2.74e-01
  | Av. % of trace(Di) retained         ...  99.999868366713
  | sigma^2 in % of trace(Di) retained  ...   5.93e-09
 Distributions of % trace(Dij) recovered:
  |   [90.0, 99.0) ...    21 ( 61.8 % of all pairs)
  |   [99.0, 99.9) ...    13 ( 38.2 % of all pairs)
 Distributions of % trace(Di) recovered :
  |       >= 99.9  ...    12 (100.0 % of all I-pairs )

Making pair pair interaction lists          ... done

                       ===========================
                         34 OF   60 PAIRS ARE KEPT
                       ===========================

Total time spent in the initial guess                 ...     0.165 sec
SL-MP2 correlation energy (all non-screened pairs)    ...      -0.004350294133 Eh

Initial PNO correlation energy                        ...      -0.004167032610 Eh
sum of pair energies estimated for screened out pairs ...       0.000000000000 Eh
sum of MP2 pair energies for pairs that were not kept ...      -0.000093578071 Eh
sum of PNO error estimates for the kept pairs         ...      -0.000089683453 Eh
                                                          --------------------
sum of all corrections                                         -0.000183261524
Initial total correlation energy                               -0.004350294133
Thresholds for map construction and integral transformation for fine MP2 and CCSD(T) calculation:
   TCutMKN   ...     1.0e-03
   TCutDO    ...     1.0e-02
   TCutPairs ...     1.0e-05
   TCutCMO   ...     1.0e-03
   TCutCPAO  ...     1.0e-03

Time for aux screen maps:            0.000
Time for maps after fine MP2:            0.001
-----------------------------
LOCAL RI TRANSFORMATION (IJV)
-----------------------------

Orbital window:      15 to 26
Basis functions:     81 (33 shells)
Aux. functions:     276 (84 shells)
Use SHARK:           on

Processing maps (0.0 sec)
Average map sizes:
   Aux shells -> MOs(i)           11.0
   Aux shells -> MOs(j)           12.0
   MOs        -> AO shells        28.4

Calculating integrals NOTE: Switching SHARK to General Contraction for MDCI
      If that is not desired please turn off the PGCFlag in the input (%shark PGCFlag 0 end)
(0.5 sec, 0.281 MB)
Sorting integrals (0.0 sec, 0.278 MB)
Total time for the integral transformation: 0.5 sec
--------------------------------
LOCAL RI TRANSFORMATION (VABPAO)
--------------------------------

Number of PAOs:      81
Basis functions:     81 (33 shells)
Aux. functions:     276 (84 shells)
Use SHARK:           on

Processing maps (0.0 sec)
Average map sizes:
   Aux shells -> PAOs             81.0
   PAOs       -> AO shells        33.0

Calculating integrals NOTE: Switching SHARK to General Contraction for MDCI
      If that is not desired please turn off the PGCFlag in the input (%shark PGCFlag 0 end)
(0.5 sec, 13.819 MB)
Finished


-------------------------------------
Pair Pair Term precalculation with     
RI-(ij|mn) and (im|jn) transformation  
ON THE FLY                             
-------------------------------------

   IBatch   1 (of   1)              ... done (    0.113 sec)
Total EXT                           ...           0.113 sec

IAVPA Available = YES
VABPAO Available= YES
IJV Available   = YES
IJK Available   = NO
PNO3i Available = YES
PNO3j Available = YES
PNO4 Available  = YES
---------------------
RI-PNO TRANSFORMATION
---------------------

Total Number of PNOs                   ...   303
Average number of PNOs per pair        ...     8
Maximal number of PNOs per pair        ...    13
   #pairs with  1 -  5 PNOs   :    0
   #pairs with  6 - 10 PNOs   :   21
   #pairs with 11 - 15 PNOs   :   13
   #pairs with 16 - 20 PNOs   :    0
   #pairs with 21 - 25 PNOs   :    0
   #pairs with 26 - 30 PNOs   :    0
   #pairs with 31 - 35 PNOs   :    0
   #pairs with 36 - 40 PNOs   :    0
   #pairs with 41 - 45 PNOs   :    0
   #pairs with 46 - 50 PNOs   :    0

Generation of (ij|ab)[P] integrals            ... on
Generation of (ia|bc)[P],(ja|bc)[P] integrals ... on
Storage of 3 and 4 external integrals         ... on
Generation of ALL (ka|bc)[P] integrals        ... on
Keep RI integrals in memory                   ... off

Ibatch:  1 (of  1)
Starting 2-4 index PNO integral generation ... done

Timings:
Total PNO integral transformation time     ...          0.170 sec
Size of the 3-external file                ...         0 MB
Size of the 4-external file                ...         0 MB
Size of the IKJL file                      ...         0 MB
Size of the all 3-external file            ...         1 MB
Size of the 1-external file                ...         0 MB

Making pair/pair overlap matrices          ... done (    0.026 sec)
Size of the pair overlap file              ... 1 MB
Redoing the guess amplitudes               ... done (    0.000 sec)

-------------------------
FINAL STARTUP INFORMATION
-------------------------

E(0)                                       ...  -1580.389251834
E(SL-MP2)                                  ...     -0.004350294
E(SL-MP2) including corrections            ...     -0.004350294
Initial E(tot)                             ...  -1580.393602128
<T|T>                                      ...      0.001531897
Number of pairs included                   ... 34
Total number of pairs                      ... 78

------------------------------------------------
                  RHF COUPLED CLUSTER ITERATIONS
------------------------------------------------

Number of PNO amplitudes to be optimized   ...         2931
Number of non-PNO amplitudes               ...        99144
Untruncated number of regular amplitudes   ...       227448

Iter       E(tot)           E(Corr)          Delta-E          Residual     Time
  0  -1580.393601846     -0.004166751      0.000183544      0.000793886    0.03
                           *** Turning on DIIS ***
  1  -1580.393561628     -0.004126533      0.000040217      0.000183944    0.03
  2  -1580.393594163     -0.004159068     -0.000032535      0.000051846    0.03
  3  -1580.393598186     -0.004163091     -0.000004023      0.000010129    0.03
  4  -1580.393598627     -0.004163532     -0.000000442      0.000002219    0.03
  5  -1580.393598606     -0.004163511      0.000000022      0.000000473    0.03
               --- The Coupled-Cluster iterations have converged ---

----------------------
COUPLED CLUSTER ENERGY
----------------------

E(0)                                       ...  -1580.389251834
E(CORR)(strong-pairs)                      ...     -0.004163511
E(CORR)(weak-pairs)                        ...     -0.000183262
E(CORR)(corrected)                         ...     -0.004346772
E(TOT)                                     ...  -1580.393598606
Singles Norm <S|S>**1/2                    ...      0.001807791  
T1 diagnostic                              ...      0.000369014  

------------------
LARGEST AMPLITUDES
------------------
  24-> 27  19-> 27       0.001948
  26-> 29  20-> 29       0.001836
  23-> 28  21-> 28       0.001756
  24-> 30  19-> 27       0.001644
  26-> 32  20-> 29       0.001620
  24-> 27  19-> 30       0.001604
  25-> 28  22-> 28       0.001600
  24-> 31  21-> 27       0.001550
  26-> 27  19-> 31       0.001550
  24-> 31  20-> 27       0.001550
  23-> 27  19-> 31       0.001549
  25-> 27  19-> 31       0.001505
  24-> 31  22-> 27       0.001482
  23-> 27  21-> 27       0.001419
  24-> 30  21-> 28       0.001415
  23-> 28  21-> 32       0.001404


 ===========================================================
         LOCAL ENERGY DECOMPOSITION FOR DLPNO-CC METHODS
 ===========================================================

Maximum Iterations for the Localization .. 600
Tolerance for the Localization          ..  1.00e-06
Number of fragments = 3
Fragment  1:  0
Fragment  2:  1
Fragment  3:  2

Populations of internal orbitals onto Fragments:
   0:      1.000    0.000    0.000  assigned to fragment   1
   1:      1.000    0.000    0.000  assigned to fragment   1
   2:      1.000    0.000    0.000  assigned to fragment   1
   3:      1.000    0.000    0.000  assigned to fragment   1
   4:      1.000    0.000    0.000  assigned to fragment   1
   5:      0.000    1.000    0.000  assigned to fragment   2
   6:      0.000    1.000    0.000  assigned to fragment   2
   7:      0.000    1.000    0.000  assigned to fragment   2
   8:      0.000    1.000    0.000  assigned to fragment   2
   9:      0.000    1.000    0.000  assigned to fragment   2
  10:      0.000    0.000    1.000  assigned to fragment   3
  11:      0.000    0.000    1.000  assigned to fragment   3
  12:      0.000    0.000    1.000  assigned to fragment   3
  13:      0.000    0.000    1.000  assigned to fragment   3
  14:      0.000    0.000    1.000  assigned to fragment   3
  15:      1.000    0.000    0.000  assigned to fragment   1
  16:      1.000    0.000    0.000  assigned to fragment   1
  17:      1.000    0.000    0.000  assigned to fragment   1
  18:      1.000    0.000    0.000  assigned to fragment   1
  19:      0.000    1.002    0.002  assigned to fragment   2
  20:      0.000    1.002    0.002  assigned to fragment   2
  21:      0.000    1.002    0.002  assigned to fragment   2
  22:      0.000    1.002    0.002  assigned to fragment   2
  23:      0.000    0.002    1.002  assigned to fragment   3
  24:      0.000    0.002    1.002  assigned to fragment   3
  25:      0.000    0.002    1.002  assigned to fragment   3
  26:      0.000    0.002    1.002  assigned to fragment   3

Summary assignment:
   9 orbitals assigned to fragment   1
   9 orbitals assigned to fragment   2
   9 orbitals assigned to fragment   3


--------------------------------
CORRELATION ENERGY DECOMPOSITION
--------------------------------


--------------------------------------------------
INTER- vs INTRA-FRAGMENT CORRELATION ENERGIES (Eh)
--------------------------------------------------

                                   Fragment   1            Fragment   2            Fragment   3            
                         ----------------------  ----------------------  ----------------------  
Intra strong pairs               0.000000000000         0.000000000000         0.000000000000  sum=        0.000000000000
Intra weak pairs                 0.000000000000         0.000000000000         0.000000000000  sum=        0.000000000000
Singles contribution             0.000000000010        -0.000000000377        -0.000000000304  sum=       -0.000000000671
                         ----------------------  ----------------------  ----------------------  
                                 0.000000000010        -0.000000000377        -0.000000000304  sum=       -0.000000000671


Interaction correlation for Fragments   2 and   1:
--------------------------------------------------
Inter strong pairs               -0.000027916067 (   -0.018 kcal/mol)
Inter weak pairs                 -0.000093718776 (   -0.059 kcal/mol)
                          ----------------------
Total interaction                -0.000121634843 (   -0.076 kcal/mol)

Interaction correlation for Fragments   3 and   1:
--------------------------------------------------
Inter strong pairs               -0.000790801276 (   -0.496 kcal/mol)
Inter weak pairs                 -0.000023749426 (   -0.015 kcal/mol)
                          ----------------------
Total interaction                -0.000814550702 (   -0.511 kcal/mol)
Interaction correlation for Fragments   3 and   2:
--------------------------------------------------
Inter strong pairs               -0.003344792673 (   -2.099 kcal/mol)
Inter weak pairs                 -0.000065793321 (   -0.041 kcal/mol)
                          ----------------------
Total interaction                -0.003410585995 (   -2.140 kcal/mol)



Sum of INTRA-fragment correlation energies  =        -0.000000000671
Sum of INTER-fragment correlation energies  =        -0.004346771540
                                              ---------------------
Total correlation energy                    =        -0.004346772211

---------------------------------------------
DECOMPOSITION OF CCSD STRONG PAIRS INTO      
    DOUBLE EXCITATION TYPES (Eh)             
---------------------------------------------

Foster-Boys localization is used for localizing PNOs

Intra fragment contributions: 
INTRA Fragment 1                        0.000000000 
INTRA Fragment 2                        0.000000000 
INTRA Fragment 3                        0.000000000 

Charge transfer contributions: 
Charge Transfer 1 to 2                 -0.000000028 
Charge Transfer 1 to 3                 -0.000017543 
Charge Transfer 2 to 1                 -0.000000019 
Charge Transfer 2 to 3                 -0.000315190 
Charge Transfer 3 to 1                 -0.000027558 
Charge Transfer 3 to 2                 -0.000370192 

Dispersion contributions: 
Dispersion  2,1                        -0.000027868 
Dispersion  3,1                        -0.000745700 
Dispersion  3,2                        -0.002659410 

Singles contributions:                   
Singles energy                         -0.000000001 
 
Delocalized contributions: 
Delocalized correlation                 0.000000000 

#Time for LED analysis ..       0.0 (sec)



--------------------------------------------------------------------------------
                                    TIMINGS
--------------------------------------------------------------------------------


Total execution time                   ...        3.544 sec

Localization of occupied MO's          ...        0.090 sec (  2.5%)
Fock Matrix Formation                  ...        0.878 sec ( 24.8%)
Global overlap, Fock, MKN matrices     ...        0.126 sec (  3.6%)
Differential overlap integrals         ...        0.206 sec (  5.8%)
Organizing maps                        ...        0.002 sec (  0.1%)
RI 3-index integral generations        ...        1.139 sec ( 32.1%)
RI-PNO integral transformation         ...        0.313 sec (  8.8%)
Initial Guess                          ...        0.308 sec (  8.7%)
DIIS Solver                            ...        0.003 sec (  0.1%)
State Vector Update                    ...        0.000 sec (  0.0%)
Sigma-vector construction              ...        0.203 sec (  5.7%)
  <D|H|D>(0-ext)                       ...        0.025 sec ( 12.4% of sigma)
  <D|H|D>(2-ext)                       ...        0.014 sec (  7.0% of sigma)
  <D|H|D>(4-ext)                       ...        0.005 sec (  2.4% of sigma)
  <D|H|D>(4-ext-corr)                  ...        0.017 sec (  8.1% of sigma)
  CCSD doubles correction              ...        0.005 sec (  2.4% of sigma)
  <S|H|S>                              ...        0.024 sec ( 11.7% of sigma)
  <S|H|D>(1-ext)                       ...        0.017 sec (  8.2% of sigma)
  <S|H|D>(3-ext)                       ...        0.002 sec (  1.2% of sigma)
  Fock-dressing                        ...        0.065 sec ( 32.0% of sigma)
  Singles amplitudes                   ...        0.004 sec (  1.9% of sigma)
  (ik|jl)-dressing                     ...        0.016 sec (  8.1% of sigma)
  (ij|ab),(ia|jb)-dressing             ...        0.006 sec (  2.8% of sigma)
Local Energy Decomposition             ...        0.016 sec (  0.5% of ALL)


Maximum memory used throughout the entire MDCI-calculation: 55.4 MB
----------------------------   ----------------
Inter-fragment dispersion       -0.003616241
----------------------------   ----------------


-------------------------   --------------------
FINAL SINGLE POINT ENERGY     -1580.392868074228 
-------------------------   --------------------


------------------------------------------------------------------------------
                              ORCA PROPERTY CALCULATIONS
------------------------------------------------------------------------------

GBWName                                 ... AR3LD_2.8_3.6_4.8.gbw
Number of atoms                         ...      3
Number of basis functions               ...    150
Max core memory                         ...   1024 MB

Electric properties:
Dipole moment                           ... YES
Quadrupole moment                       ...  NO
Static polarizability (Dipole/Dipole)   ...  NO
Static polarizability (Dipole/Quad.)    ...  NO
Static polarizability (Quad./Quad.)     ...  NO
Static polarizability (Velocity)        ...  NO

Atomic electric properties:
Dipole moment                           ...  NO
Quadrupole moment                       ...  NO
Static polarizability                   ...  NO

Choice of electric origin               ... Center of mass
Position of electric origin             ...     4.871294     1.314617     0.000000

General magnetic properties:
Magnetizability                         ...  NO

EPR properties:
g-Tensor (aka g-matrix)                 ...  NO
Zero-Field splitting spin-orbit         ...  NO
Zero-field splitting spin-spin          ...  NO
Hyperfine couplings                     ...  NO (   0 nuclei)
Quadrupole couplings                    ...  NO (   0 nuclei)
Contact density                         ...  NO (   0 nuclei)

NMR properties:
Chemical shifts                         ...  NO (   0 nuclei)
Spin-rotation constants                 ...  NO (   0 nuclei)
Spin-spin couplings                     ...  NO (   0 nuclei,    0 pairs)

Choice of magnetic origin               ... GIAO
Position of magnetic origin             ...     0.000000     0.000000     0.000000

Properties with geometric perturbations:
SCF Hessian                             ...  NO
IR spectrum                             ...  NO
VCD spectrum                            ...  NO
X-ray spectroscopy properties:
SCF XES/XAS/RIXS spectra                ...  NO


-------------
DIPOLE MOMENT
-------------

Method             : SCF
Type of density    : Electron Density
Multiplicity       :   1
Irrep              :   0
Energy             : -1580.3892518335223940 Eh
Relativity type    : 
Basis              : AO
                                X                 Y                 Z
Electronic contribution:     -0.000921777       0.001253089      -0.000000000
Nuclear contribution   :     -0.000000000       0.000000000       0.000000000
                        -----------------------------------------
Total Dipole Moment    :     -0.000921777       0.001253089      -0.000000000
                        -----------------------------------------
Magnitude (a.u.)       :      0.001555604
Magnitude (Debye)      :      0.003954032



--------------------
Rotational spectrum 
--------------------
 
Rotational constants in cm-1:             0.148504             0.035848             0.028877 
Rotational constants in MHz :          4452.026588          1074.688493           865.711670 

Dipole components along the rotational axes: 
x,y,z [a.u.] :     0.000814     0.001326    -0.000000 
x,y,z [Debye]:     0.002069     0.003369    -0.000000 

 

Dipole moment calculation done in   0.0 sec 

Maximum memory used throughout the entire PROP-calculation: 6.8 MB

--------------------------------
SUGGESTED CITATIONS FOR THIS RUN
--------------------------------

Below you find a list of papers that are relevant to this ORCA run
We neither can nor want to force you to cite these papers, but we appreciate if you do
You receive ORCA, which is the product of decades of hard work by many enthusiastic individuals, for free
The only thing we kindly ask in return is that you cite our papers,
We deeply appreciate it, if you show your appreciation for ORCA by not just citing the generic ORCA reference.

Please note that relegating all ORCA citations to the supporting information does *not* help us.
SI sections are not indexed - citations you put there will not count into any citation statistics
But we need these citations in order to attract the funding resources that allow us to do what we are doing

Therefore, if you are a happy ORCA user, please consider citing a few of the papers listed below in the main body of your paper

In addition to the list printed below, the program has created the file AR3LD_2.8_3.6_4.8.bibtex that contains the list in bibtex format
You can import this file easily into all common literature databanks and citation aid programs


List of essential papers. We consider these as the minimum necessary citations

  1. Neese,F.
     Software update: the ORCA program system, version 5.0
     WIRES Comput. Molec. Sci., 2022 12(1)e1606
     doi.org/10.1002/wcms.1606

List of papers to cite with high priority. The work reported in these papers was absolutely
necessary for this run to complete.
Our perspective: the developers of density functionals and basis sets usually get cited in chemistry papers
Good! But without the algorithms to do something with them, the functionals or basis sets would not do anything.
Hence, in our opinion, the algorithm design and method developments papers are equally worthy of getting cited

  1. Neese,F.; Hansen,A.; Liakos,D.G.
     Efficient and accurate approximations to the local coupled cluster singles doubles method using a truncated pair natural orbital basis
     J. Chem. Phys., 2009 131 064103
     doi.org/10.1063/1.3173827
  2. Neese,F.; Wennmohs,F.; Hansen,A.
     Efficient and accurate local approximations to coupled-electron pair approaches: An attempt to revive the pair natural orbital method
     J. Chem. Phys., 2009 130 114108
     doi.org/10.1063/1.3086717
  3. Riplinger,C.; Neese,F.
     An efficient and near linear scaling pair natural orbital based local coupled cluster method
     J. Chem. Phys., 2013 138(3)Art. No. 034106
     doi.org/10.1063/1.4773581
  4. Datta,D.; Kossmann,S.; Neese,F.
     Analytic energy derivatives for the calculation of the first-order molecular properties using the domain-based local pair-natural orbital coupled-cluster theory
     J. Chem. Phys., 2016 145 
     doi.org/10.1063/1.4962369
  5. Riplinger,C.; Pinski,P.; Becker,U.; Valeev,E.F.; Neese,F.
     Sparse maps-A systematic infrastructure for reduced-scaling electronic structure methods. II. Linear scaling domain based pair natural orbital coupled cluster theory
     J. Chem. Phys., 2016 144 
     doi.org/10.1063/1.4939030
  6. Schneider,W.B.; Bistoni,G.; Sparta,M.; Saitow,M.; Riplinger,C.; Auer,A.A.; Neese,F.
     Decomposition of Intermolecular Interaction Energies within the Local Pair Natural Orbital Coupled Cluster Framework
     J. Theo. Comp. Chem., 2016 12 4778-4792
     doi.org/10.1021/acs.jctc.6b00523
  7. Bistoni,G.; Riplinger,C.; Minenkov,Y.; Cavallo,L.; Auer,A.A.; Neese,F.
     Treating Subvalence Correlation Effects in Domain Based Pair Natural Orbital Coupled Cluster Calculations: An Out-of-the-Box Approach
     J. Theo. Comp. Chem., 2017 13 3220-3227
     doi.org/10.1021/acs.jctc.7b00352
  8. Altun,A.; Neese,F.; Bistoni,G.
     HFLD: A Nonempirical London Dispersion-Corrected Hartree-Fock Method for the Quantification and Analysis of Noncovalent Interaction Energies of Large Molecular Systems
     J. Chem. Theory Comput., 2019 15 5894-5907
     doi.org/10.1021/acs.jctc.9b00425
  9. Neese,F.
     The SHARK Integral Generation and Digestion System
     J. Comp. Chem., 2022  1-16
     doi.org/10.1002/jcc.26942
 10. Altun,A.; Neese,F.; Bistoni,G.
     Open-Shell Variant of the London Dispersion-Corrected Hartree–Fock Method (HFLD) for the Quantification and Analysis of Noncovalent Interaction Energies
     J. Chem. Theory Comput., 2022 XX XXXX-XXXX
     doi.org/10.1021/acs.jctc.1c01295

List of suggested additional citations. These are papers that are important in the 'surrounding' of 
of this run, or papers that preceded the highly important papers. If you like your results we are grateful for a citation.

  1. Neese,F.
     The ORCA program system
     WIRES Comput. Molec. Sci., 2012 2(1)73-78
     doi.org/10.1002/wcms.81
  2. Neese,F.
     Software update: the ORCA program system, version 4.0
     WIRES Comput. Molec. Sci., 2018 8(1)1-6
     doi.org/10.1002/wcms.1327
  3. Neese,F.; Wennmohs,F.; Becker,U.; Riplinger,C.
     The ORCA quantum chemistry program package
     J. Chem. Phys., 2020 152 Art. No. L224108
     doi.org/10.1063/5.0004608
  4. Bistoni,G.
     Finding chemical concepts in the Hilbert space: Coupled cluster analyses of noncovalent interactions
     WIRES Comput. Molec. Sci., 2020 10(3)e1442
     doi.org/10.1002/wcms.1442

List of optional additional citations

  1. Neese,F.
     Approximate second-order SCF convergence for spin unrestricted wavefunctions
     Chem. Phys. Lett., 2000 325(1-3)93-98
     doi.org/10.1016/s0009-2614(00)00662-x

Timings for individual modules:

Sum of individual times          ...        9.759 sec (=   0.163 min)
Startup calculation              ...        1.510 sec (=   0.025 min)  15.5 %
SCF iterations                   ...        4.527 sec (=   0.075 min)  46.4 %
Property integrals               ...        0.072 sec (=   0.001 min)   0.7 %
Property calculations            ...        0.076 sec (=   0.001 min)   0.8 %
MDCI module                      ...        3.573 sec (=   0.060 min)  36.6 %
                             ****ORCA TERMINATED NORMALLY****
TOTAL RUN TIME: 0 days 0 hours 0 minutes 9 seconds 822 msec
