
                                 *****************
                                 * O   R   C   A *
                                 *****************

                                            #,                                       
                                            ###                                      
                                            ####                                     
                                            #####                                    
                                            ######                                   
                                           ########,                                 
                                     ,,################,,,,,                         
                               ,,#################################,,                 
                          ,,##########################################,,             
                       ,#########################################, ''#####,          
                    ,#############################################,,   '####,        
                  ,##################################################,,,,####,       
                ,###########''''           ''''###############################       
              ,#####''   ,,,,##########,,,,          '''####'''          '####       
            ,##' ,,,,###########################,,,                        '##       
           ' ,,###''''                  '''############,,,                           
         ,,##''                                '''############,,,,        ,,,,,,###''
      ,#''                                            '''#######################'''  
     '                                                          ''''####''''         
             ,#######,   #######,   ,#######,      ##                                
            ,#'     '#,  ##    ##  ,#'     '#,    #''#        ,####,   ,####,        
            ##       ##  ##   ,#'  ##            #'  '#       #'       #'  '#        
            ##       ##  #######   ##           ,######,      #####,   #    #        
            '#,     ,#'  ##    ##  '#,     ,#' ,#      #,     #,   #   #,  ,#        
             '#######'   ##     ##  '#######'  #'      '#     '####' # '####'        



                #########################################################
                #                        -***-                          #
                #          Department of theory and spectroscopy        #
                #                                                       #
                #                      Frank Neese                      #
                #                                                       #
                #     Directorship, Architecture, Infrastructure        #
                #                    SHARK, DRIVERS                     #
                #        Core code/Algorithms in most modules           #
                #                                                       #
                #        Max Planck Institute fuer Kohlenforschung      #
                #                Kaiser Wilhelm Platz 1                 #
                #                 D-45470 Muelheim/Ruhr                 #
                #                      Germany                          #
                #                                                       #
                #                  All rights reserved                  #
                #                        -***-                          #
                #########################################################


                         Program Version 6.0.0  -   RELEASE  -


 With contributions from (in alphabetic order):
   Daniel Aravena         : Magnetic Suceptibility
   Michael Atanasov       : Ab Initio Ligand Field Theory (pilot matlab implementation)
   Alexander A. Auer      : GIAO ZORA, VPT2 properties, NMR spectrum
   Ute Becker             : All parallelization in ORCA, NUMFREQ, NUMCALC
   Giovanni Bistoni       : ED, misc. LED, open-shell LED, HFLD
   Martin Brehm           : Molecular dynamics
   Dmytro Bykov           : pre 5.0 version of the SCF Hessian
   Marcos Casanova-Páez   : Triplet and SCS-CIS(D). UHF-(DLPNO)-IP/EA/STEOM-CCSD. UHF-CVS-IP/STEOM-CCSD
   Vijay G. Chilkuri      : MRCI spin determinant printing, contributions to CSF-ICE
   Pauline Colinet        : FMM embedding
   Dipayan Datta          : RHF DLPNO-CCSD density
   Achintya Kumar Dutta   : EOM-CC, STEOM-CC
   Nicolas Foglia         : Exact transition moments, OPA infrastructure, MCD improvements
   Dmitry Ganyushin       : Spin-Orbit,Spin-Spin,Magnetic field MRCI
   Miquel Garcia          : C-PCM and meta-GGA Hessian, CCSD/C-PCM, Gaussian charge scheme
   Tiago L. C. Gouveia    : GS-ROHF, GS-ROCIS
   Yang Guo               : DLPNO-NEVPT2, F12-NEVPT2, CIM, IAO-localization
   Andreas Hansen         : Spin unrestricted coupled pair/coupled cluster methods
   Ingolf Harden          : AUTO-CI MPn and infrastructure 
   Benjamin Helmich-Paris : MC-RPA, TRAH-(SCF,CASSCF), AVAS, COSX integrals, SCF dyn. polar.
   Lee Huntington         : MR-EOM, pCC
   Robert Izsak           : Overlap fitted RIJCOSX, COSX-SCS-MP3, EOM
   Riya Kayal             : Wick's Theorem for AUTO-CI, AUTO-CI UHF-CCSDT
   Emily Kempfer          : AUTO-CI, RHF CISDT and CCSDT
   Christian Kollmar      : KDIIS, OOCD, Brueckner-CCSD(T), CCSD density, CASPT2, CASPT2-K, improved NEVPT2
   Axel Koslowski         : Symmetry handling
   Simone Kossmann        : Meta GGA functionals, TD-DFT gradient, OOMP2, (MP2 Hessian; deprecated post 5.0)
   Lucas Lang             : DCDCAS
   Marvin Lechner         : AUTO-CI (C++ implementation), FIC-MRCC
   Spencer Leger          : CASSCF response
   Dagmar Lenk            : GEPOL surface, SMD, ORCA-2-JSON
   Dimitrios Liakos       : Extrapolation schemes; Compound Job, initial MDCI parallelization
   Dimitrios Manganas     : Further ROCIS development; embedding schemes. LFT, Crystal Embedding
   Dimitrios Pantazis     : SARC Basis sets
   Anastasios Papadopoulos: AUTO-CI, single reference methods and gradients
   Taras Petrenko         : pre 6.0 DFT Hessian and TD-DFT gradient, (ASA, deprecated), ECA, 1-Electron XAS/XES, NRVS
   Peter Pinski           : DLPNO-MP2, DLPNO-MP2 Gradient
   Christoph Reimann      : Effective Core Potentials
   Marius Retegan         : Local ZFS, SOC
   Christoph Riplinger    : Optimizer, TS searches, QM/MM, DLPNO-CCSD(T), (RO)-DLPNO pert. Triples
   Michael Roemelt        : Original ROCIS implementation
   Masaaki Saitow         : Open-shell DLPNO-CCSD energy and density
   Barbara Sandhoefer     : DKH picture change effects
   Kantharuban Sivalingam : CASSCF convergence/infrastructure, NEVPT2 and variants, FIC-MRCI
   Bernardo de Souza      : ESD, SOC TD-DFT
   Georgi Stoychev        : AutoAux, RI-MP2 NMR, DLPNO-MP2 response, X2C
   Van Anh Tran           : RI-MP2 g-tensors
   Willem Van den Heuvel  : Paramagnetic NMR
   Zikuan Wang            : NOTCH, Electric field optimization 
   Frank Wennmohs         : Technical directorship and infrastructure
   Hang Xu                : AUTO-CI-Response properties 


 We gratefully acknowledge several colleagues who have allowed us to
 interface, adapt or use parts of their codes:
   Stefan Grimme, W. Hujo, H. Kruse, P. Pracht,  : VdW corrections, initial TS optimization,
                  C. Bannwarth, S. Ehlert,         DFT functionals, gCP, sTDA/sTD-DF
                  L. Wittmann, M. Mueller
   Ed Valeev, F. Pavosevic, A. Kumar             : LibInt (2-el integral package), F12 methods
   Garnet Chan, S. Sharma, J. Yang, R. Olivares  : DMRG
   Ulf Ekstrom                                   : XCFun DFT Library
   Mihaly Kallay                                 : mrcc  (arbitrary order and MRCC methods)
   Frank Weinhold                                : gennbo (NPA and NBO analysis)
   Simon Mueller                                 : openCOSMO-RS
   Christopher J. Cramer and Donald G. Truhlar   : smd solvation model
   Lars Goerigk                                  : TD-DFT with DH, B97 family of functionals
   V. Asgeirsson, H. Jonsson                     : NEB implementation
   FAccTs GmbH                                   : IRC, NEB, NEB-TS, DLPNO-Multilevel, CI-OPT
                                                   MM, QMMM, 2- and 3-layer-ONIOM, Crystal-QMMM,
                                                   LR-CPCM, SF, NACMEs, symmetry and pop. for TD-DFT,
                                                   nearIR, NL-DFT gradient (VV10), updates on ESD,
                                                   ML-optimized integration grids, MBIS, APM,
                                                   GOAT, DOCKER, SOLVATOR, interface openCOSMO-RS
   S Lehtola, MJT Oliveira, MAL Marques          : LibXC Library
   Liviu Ungur et al                             : ANISO software


 Your calculation uses the libint2 library for the computation of 2-el integrals
 For citations please refer to: http://libint.valeyev.net

 Your ORCA version has been built with support for libXC version: 6.2.2
 For citations please refer to: https://libxc.gitlab.io

 This ORCA versions uses:
   CBLAS   interface :  Fast vector & matrix operations
   LAPACKE interface :  Fast linear algebra routines
   SCALAPACK package :  Parallel linear algebra routines
   Shared memory     :  Shared parallel matrices
   BLAS/LAPACK       :  OpenBLAS 0.3.27  USE64BITINT DYNAMIC_ARCH NO_AFFINITY Haswell SINGLE_THREADED
        Core in use  :  Haswell
   Copyright (c) 2011-2014, The OpenBLAS Project


================================================================================

----- Orbital basis set information -----
Your calculation utilizes the basis: aug-cc-pVDZ 
    H, B-Ne : Obtained from the ccRepo (grant-hill.group.shef.ac.uk/ccrepo) Feb. 2017
              R. A. Kendall, T. H. Dunning, Jr., R. J. Harrison, J. Chem. Phys. 96, 6796 (1992)
         He : Obtained from the ccRepo (grant-hill.group.shef.ac.uk/ccrepo) Feb. 2017
              D. E. Woon, T. H. Dunning, Jr., J. Chem. Phys. 100, 2975 (1994)
  Li-Be, Na : Obtained from the ccRepo (grant-hill.group.shef.ac.uk/ccrepo) Feb. 2017
              B. P. Prascher, D. E. Woon, K. A. Peterson, T. H. Dunning, Jr., A. K. Wilson, Theor. Chem. Acc. 128, 69 (2011)
         Mg : Obtained from the Peterson Research Group Website (tyr0.chem.wsu.edu/~kipeters) Feb. 2017
              B. P. Prascher, D. E. Woon, K. A. Peterson, T. H. Dunning, Jr., A. K. Wilson, Theor. Chem. Acc. 128, 69 (2011)
      Al-Ar : Obtained from the ccRepo (grant-hill.group.shef.ac.uk/ccrepo) Feb. 2017
              D. E. Woon, T. H. Dunning, Jr., J. Chem. Phys. 98, 1358 (1993)
      Sc-Zn : Obtained from the ccRepo (grant-hill.group.shef.ac.uk/ccrepo) Feb. 2017
              N. B. Balabanov, K. A. Peterson, J. Chem. Phys. 123, 064107 (2005)
              N. B. Balabanov, K. A. Peterson, J. Chem. Phys. 125, 074110 (2006)
      Ga-Kr : Obtained from the ccRepo (grant-hill.group.shef.ac.uk/ccrepo) Feb. 2017
              A. K. Wilson, D. E. Woon, K. A. Peterson, T. H. Dunning, Jr., J. Chem. Phys. 110, 7667 (1999)

----- AuxC basis set information -----
Your calculation utilizes the auxiliary basis: aug-cc-pVDZ/C 
  H-He, B, Ne, Al-Ar, Ga-Ge, Se-Br : Obtained from the EMSL Basis Set Exchange (bse.pnl.gov) Feb. 2017
                                     F. Weigend, A. Kohn, C. Hattig, J. Chem. Phys. 116, 3175 (2002)
                            Be, Mg : Obtained from the TURBOMOLE 7.0 basis set library
                                     C. Haettig, Phys. Chem. Chem. Phys. 7, 59 (2005)
                               C-F : Obtained from the EMSL Basis Set Exchange (bse.pnl.gov) Feb. 2017
                                     C. Haettig, Phys. Chem. Chem. Phys. 7, 59 (2005)
                                     F. Weigend, A. Kohn, C. Hattig, J. Chem. Phys. 116, 3175 (2002)
                                As : Obtained from the EMSL Basis Set Exchange (bse.pnl.gov) Feb. 2017
                                     C. Haettig, G. Schmitz, J. Kossmann, Phys. Chem. Chem. Phys. 14, 6549 (2012)
                                Kr : Obtained from the TURBOMOLE 7.0 basis set library
                                     F. Weigend, A. Kohn, C. Hattig, J. Chem. Phys. 116, 3175 (2002)
                                     S function revised in Sep. 2009

================================================================================
                                        WARNINGS
                       Please study these warnings very carefully!
================================================================================


WARNING: Post HF methods need fully converged wavefunctions
  ===> : Setting SCFConvForced true
         You can overwrite this default with %scf ConvForced false 


================================================================================
                                       INPUT FILE
================================================================================
NAME = AR3LD_3.6_2.8_3.6.inp
|  1> # MP2 scan of the potential energy curve for Ar...Ar
|  2>                 ! HFLD aug-cc-pvdz aug-cc-pvdz/C verytightscf
|  3>                 *xyz 0 1
|  4>                 Ar(1)	0    0	0.00000000000000
|  5>                 Ar(2)	3.6	0    0.00000000000000
|  6>                 Ar(3)	1.0888888888888888	2.579597059165311    0.00000000000000
|  7>                 **                         ****END OF INPUT****
================================================================================

                       ****************************
                       * Single Point Calculation *
                       ****************************

---------------------------------
CARTESIAN COORDINATES (ANGSTROEM)
---------------------------------
  Ar     0.000000    0.000000    0.000000
  Ar     3.600000    0.000000    0.000000
  Ar     1.088889    2.579597    0.000000

----------------------------
CARTESIAN COORDINATES (A.U.)
----------------------------
  NO LB      ZA    FRAG     MASS         X           Y           Z
   0 Ar   18.0000    1    39.948    0.000000    0.000000    0.000000
   1 Ar   18.0000    2    39.948    6.803014    0.000000    0.000000
   2 Ar   18.0000    3    39.948    2.057702    4.874732    0.000000

----------------------------------------------
CARTESIAN COORDINATES OF FRAGMENTS (ANGSTROEM)
----------------------------------------------

 FRAGMENT 1 
  Ar    0.000000    0.000000    0.000000

 FRAGMENT 2 
  Ar    3.600000    0.000000    0.000000

 FRAGMENT 3 
  Ar    1.088889    2.579597    0.000000

--------------------------------
INTERNAL COORDINATES (ANGSTROEM)
--------------------------------
 Ar     0   0   0     0.000000000000     0.00000000     0.00000000
 Ar     1   0   0     3.600000000000     0.00000000     0.00000000
 Ar     1   2   0     2.800000000000    67.11461952     0.00000000

---------------------------
INTERNAL COORDINATES (A.U.)
---------------------------
 Ar     0   0   0     0.000000000000     0.00000000     0.00000000
 Ar     1   0   0     6.803014082117     0.00000000     0.00000000
 Ar     1   2   0     5.291233174980    67.11461952     0.00000000

---------------------
BASIS SET INFORMATION
---------------------
There are 1 groups of distinct atoms

 Group   1 Type Ar  : 35s16p2d contracted to 5s4p2d pattern {11111111/7711/11}

Atom   0Ar   basis set group =>   1
Atom   1Ar   basis set group =>   1
Atom   2Ar   basis set group =>   1
---------------------------------
AUXILIARY/C BASIS SET INFORMATION
---------------------------------
There are 1 groups of distinct atoms

 Group   1 Type Ar  : 10s8p6d4f contracted to 10s8p6d4f pattern {1111111111/11111111/111111/1111}

Atom   0Ar   basis set group =>   1
Atom   1Ar   basis set group =>   1
Atom   2Ar   basis set group =>   1
------------------------------------------------------------------------------
                             ORCA STARTUP CALCULATIONS
------------------------------------------------------------------------------
------------------------------------------------------------------------------
                   ___                                                        
                  /   \      - P O W E R E D   B Y -                         
                 /     \                                                     
                 |  |  |   _    _      __       _____    __    __             
                 |  |  |  | |  | |    /  \     |  _  \  |  |  /  |          
                  \  \/   | |  | |   /    \    | | | |  |  | /  /          
                 / \  \   | |__| |  /  /\  \   | |_| |  |  |/  /          
                |  |  |   |  __  | /  /__\  \  |    /   |      \           
                |  |  |   | |  | | |   __   |  |    \   |  |\   \          
                \     /   | |  | | |  |  |  |  | |\  \  |  | \   \       
                 \___/    |_|  |_| |__|  |__|  |_| \__\ |__|  \__/        
                                                                              
                      - O R C A' S   B I G   F R I E N D -                    
                                      &                                       
                       - I N T E G R A L  F E E D E R -                       
                                                                              
 v1 FN, 2020, v2 2021, v3 2022-2024                                           
------------------------------------------------------------------------------


----------------------
SHARK INTEGRAL PACKAGE
----------------------

Number of atoms                             ...      3
Number of basis functions                   ...    150
Number of shells                            ...     72
Maximum angular momentum                    ...      2
Integral batch strategy                     ... SHARK/LIBINT Hybrid
RI-J (if used) integral strategy            ... SPLIT-RIJ (Revised 2003 algorithm where possible)
Printlevel                                  ...      1
Contraction scheme used                     ... PARTIAL GENERAL contraction
Prescreening option                         ... SCHWARTZ
   Thresh                                   ... 1.000e-12
   Tcut                                     ... 1.000e-14
   Tpresel                                  ... 1.000e-14 
Coulomb Range Separation                    ... NOT USED
Exchange Range Separation                   ... NOT USED
Multipole approximations                    ... NOT USED
Finite Nucleus Model                        ... NOT USED
CABS basis                                  ... NOT available
Auxiliary Coulomb fitting basis             ... NOT available
Auxiliary J/K fitting basis                 ... NOT available
Auxiliary Correlation fitting basis         ... AVAILABLE
   # of basis functions in Aux-C            ...    276
   # of shells in Aux-C                     ...     84
   Maximum angular momentum in Aux-C        ...      3
Auxiliary 'external' fitting basis          ... NOT available

Checking pre-screening integrals            ... done (  0.0 sec) Dimension = 72
Save PGC pre-screening integrals            ... done (  0.0 sec) Dimension = 72
Calculate PGC overlap integrals             ... done (  0.0 sec) Dimension = 33
Calculating pre-screening integrals (ORCA)  ... done (  0.1 sec) Dimension = 33
Check shell pair data                       ... done (  0.0 sec)
Shell pair information
Shell pair cut-off parameter TPreSel        ...   1.0e-14
Total number of shell pairs                 ...      2628
Shell pairs after pre-screening             ...      1817
Total number of primitive shell pairs       ...      2628
Primitive shell pairs kept                  ...      1817
          la=0 lb=0:    460 shell pairs
          la=1 lb=0:    691 shell pairs
          la=1 lb=1:    273 shell pairs
          la=2 lb=0:    214 shell pairs
          la=2 lb=1:    158 shell pairs
          la=2 lb=2:     21 shell pairs

Calculating one electron integrals          ... done (  0.0 sec)
Calculating RI/C V-Matrix + Cholesky decomp.... done (  0.0 sec)
Calculating Nuclear repulsion               ... done (  0.0 sec) ENN=    156.485260168714 Eh

Diagonalization of the overlap matrix:
Smallest eigenvalue                        ... 1.638e-02
Time for diagonalization                   ...    0.001 sec
Threshold for overlap eigenvalues          ... 1.000e-07
Number of eigenvalues below threshold      ... 0
Time for construction of square roots      ...    0.000 sec
Total time needed                          ...    0.002 sec

-------------------
DFT GRID GENERATION
-------------------

General Integration Accuracy     IntAcc      ... 4.388
Radial Grid Type                 RadialGrid  ... OptM3 with GC (2021)
Angular Grid (max. ang.)         AngularGrid ... 4 (Lebedev-302)
Angular grid pruning method      GridPruning ... 4 (adaptive)
Weight generation scheme         WeightScheme... mBecke (2022)
Basis function cutoff            BFCut       ... 1.0000e-12
Integration weight cutoff        WCut        ... 1.0000e-14
Partially contracted basis set               ... off
Rotationally invariant grid construction     ... off
Angular grids for H and He will be reduced by one unit

Total number of grid points                  ...    22078
Total number of batches                      ...      347
Average number of points per batch           ...       63
Average number of grid points per atom       ...     7359

---------------------
SHARK GRID GENERATION
---------------------

General Integration Accuracy     IntAcc      ... 4.388
Radial Grid Type                 RadialGrid  ... OptM3 with GC (2021)
Angular Grid (max. ang.)         AngularGrid ... 4 (Lebedev-302)
Angular grid pruning method      GridPruning ... 4 (adaptive)
Weight generation scheme         WeightScheme... mBecke (2022)
Basis function cutoff            BFCut       ... 1.0000e-12
Integration weight cutoff        WCut        ... 1.0000e-14
Partially contracted basis set               ... off
Rotationally invariant grid construction     ... off
Angular grids for H and He will be reduced by one unit
Core-polarized basis detected: some atoms will have their core
                               angular grid increased.
Steep s-basis detected: some atoms will have their radial
                        grid points doubled.

Total number of grid points                  ...    58012
Total number of batches                      ...      908
Average number of points per batch           ...       63
Average number of grid points per atom       ...    19337
Initializing property integral containers    ... done (  0.0 sec)

SHARK setup successfully completed in   1.3 seconds

Maximum memory used throughout the entire STARTUP-calculation: 27.6 MB
-------------------------------------------------------------------------------
                                 ORCA GUESS
                   Start orbitals & Density for SCF / CASSCF
-------------------------------------------------------------------------------

------------
SCF SETTINGS
------------
Hamiltonian:
 Ab initio Hamiltonian  Method          .... Hartree-Fock(GTOs)


General Settings:
 Integral files         IntName         .... AR3LD_3.6_2.8_3.6
 Hartree-Fock type      HFTyp           .... RHF
 Total Charge           Charge          ....    0
 Multiplicity           Mult            ....    1
 Number of Electrons    NEL             ....   54
 Basis Dimension        Dim             ....   81
 Nuclear Repulsion      ENuc            ....    156.4852601687 Eh

Convergence Acceleration:
 AO-DIIS                CNVDIIS         .... on
   Start iteration      DIISMaxIt       ....    12
   Startup error        DIISStart       ....  0.200000
   # of expansion vecs  DIISMaxEq       ....     5
   Bias factor          DIISBfac        ....   1.050
   Max. coefficient     DIISMaxC        ....  10.000
 MO-DIIS                CNVKDIIS        .... off
 Trust-Rad. Augm. Hess. CNVTRAH         .... auto
   Auto Start mean grad. ratio tolernc. ....  1.125000
   Auto Start start iteration           ....    50
   Auto Start num. interpolation iter.  ....    10
   Max. Number of Micro iterations      ....    24
   Max. Number of Macro iterations      .... Maxiter - #DIIS iter
   Number of Davidson start vectors     ....     2
   Converg. threshold    (grad. norm)   ....   2.000e-06
   Grad. Scal. Fac. for Micro threshold ....   0.100
   Minimum threshold for Micro iter.    ....   1.000e-02
   NR start threshold (gradient norm)   ....   1.000e-04
   Initial trust radius                 ....   0.400
   Minimum AH scaling param. (alpha)    ....   1.000
   Maximum AH scaling param. (alpha)    .... 1000.000
   Quad. conv. algorithm                .... NR
   White noise on init. David. guess    .... on
   Maximum white noise                  ....   0.010
   Pseudo random numbers                .... off
   Inactive MOs                         .... canonical
   Orbital update algorithm             .... Taylor
   Preconditioner                       .... Diag
   Full preconditioner red. dimension   ....   250
 SOSCF                  CNVSOSCF        .... on
   Start iteration      SOSCFMaxIt      ....   150
   Startup grad/error   SOSCFStart      ....  0.003300
   Hessian update       SOSCFHessUp     .... L-BFGS
 Level Shifting         CNVShift        .... on
   Level shift para.    LevelShift      ....    0.2500
   Turn off err/grad.   ShiftErr        ....    0.0010
 Zerner damping         CNVZerner       .... off
 Static damping         CNVDamp         .... on
   Fraction old density DampFac         ....    0.7000
   Max. Damping (<1)    DampMax         ....    0.9800
   Min. Damping (>=0)   DampMin         ....    0.0000
   Turn off err/grad.   DampErr         ....    0.1000

SCF Procedure:
 Maximum # iterations   MaxIter         ....   125
 SCF integral mode      SCFMode         .... Direct
   Integral package                     .... SHARK and LIBINT hybrid scheme
 Reset frequency        DirectResetFreq ....    20
 Integral Threshold     Thresh          ....  1.000e-12 Eh
 Primitive CutOff       TCut            ....  1.000e-14 Eh

Convergence Tolerance:
 Convergence Check Mode ConvCheckMode   .... Total+1el-Energy
 Convergence forced     ConvForced      .... 1
 Energy Change          TolE            ....  1.000e-09 Eh
 1-El. energy change                    ....  1.000e-06 Eh
 Orbital Gradient       TolG            ....  2.000e-06
 Orbital Rotation angle TolX            ....  2.000e-06
 DIIS Error             TolErr          ....  1.000e-08

------------------------------
INITIAL GUESS: MODEL POTENTIAL
------------------------------
Loading Hartree-Fock densities                     ... done
Calculating cut-offs                               ... done
Initializing the effective Hamiltonian             ... done
Setting up the integral package (SHARK)            ... done
Starting the Coulomb interaction                   ... done (   0.0 sec)
Making the grid                                    ... done (   0.0 sec)
Mapping shells                                     ... done
Starting the XC term evaluation                    ... done (   0.0 sec)
Transforming the Hamiltonian                       ... done (   0.0 sec)
Diagonalizing the Hamiltonian                      ... done (   0.0 sec)
Back transforming the eigenvectors                 ... done (   0.0 sec)
Now organizing SCF variables                       ... done
                      ------------------
                      INITIAL GUESS DONE (   0.1 sec)
                      ------------------
             **** ENERGY FILE WAS UPDATED (AR3LD_3.6_2.8_3.6.en.tmp) ****
Finished Guess after   0.1 sec
Maximum memory used throughout the entire GUESS-calculation: 6.8 MB

-------------------------------------------------------------------------------------------
                                      ORCA LEAN-SCF
                              memory conserving SCF solver
-------------------------------------------------------------------------------------------

----------------------------------------D-I-I-S--------------------------------------------
Iteration    Energy (Eh)           Delta-E    RMSDP     MaxDP     DIISErr   Damp  Time(sec)
-------------------------------------------------------------------------------------------
               ***  Starting incremental Fock matrix formation  ***
    1    -1580.3694916387705689     0.00e+00  1.12e-03  1.78e-02  9.24e-02  0.700   0.5
    2    -1580.3748958581741135    -5.40e-03  8.83e-04  1.30e-02  6.62e-02  0.700   0.5
                               ***Turning on AO-DIIS***
    3    -1580.3788375175040528    -3.94e-03  7.05e-04  9.51e-03  4.71e-02  0.700   0.4
    4    -1580.3816787117855256    -2.84e-03  1.73e-03  2.23e-02  3.31e-02  0.000   0.5
                              *** Initializing SOSCF ***
---------------------------------------S-O-S-C-F--------------------------------------
Iteration    Energy (Eh)           Delta-E    RMSDP     MaxDP     MaxGrad    Time(sec)
--------------------------------------------------------------------------------------
    5    -1580.3886427687928062    -6.96e-03  8.94e-05  1.02e-03  1.07e-03     0.5
               *** Restarting incremental Fock matrix formation ***
    6    -1580.3886526081914781    -9.84e-06  4.25e-05  5.79e-04  2.32e-04     0.4
    7    -1580.3886542878869932    -1.68e-06  1.55e-05  1.90e-04  5.68e-05     0.4
    8    -1580.3886543951819021    -1.07e-07  8.60e-07  1.47e-05  7.84e-06     0.3
    9    -1580.3886543957185040    -5.37e-10  1.66e-07  2.61e-06  1.26e-06     0.3
                 **** Energy Check signals convergence ****

               *****************************************************
               *                     SUCCESS                       *
               *           SCF CONVERGED AFTER   9 CYCLES          *
               *****************************************************

             **** ENERGY FILE WAS UPDATED (AR3LD_3.6_2.8_3.6.en.tmp) ****

----------------
TOTAL SCF ENERGY
----------------

Total Energy       :      -1580.38865439571850 Eh          -43004.56160 eV

Components:
Nuclear Repulsion  :        156.48526016871432 Eh            4258.18041 eV
Electronic Energy  :      -1736.87391456443288 Eh          -47262.74201 eV
One Electron Energy:      -2497.63691177375495 Eh          -67964.15560 eV
Two Electron Energy:        760.76299720932207 Eh           20701.41359 eV

Virial components:
Potential Energy   :      -3160.92297701191819 Eh          -86013.08703 eV
Kinetic Energy     :       1580.53432261619946 Eh           43008.52543 eV
Virial Ratio       :          1.99990783609163

---------------
SCF CONVERGENCE
---------------

  Last Energy change         ...    5.3660e-10  Tolerance :   1.0000e-09
  Last MAX-Density change    ...    2.6094e-06  Tolerance :   1.0000e-08
  Last RMS-Density change    ...    1.6621e-07  Tolerance :   1.0000e-09
  Last DIIS Error            ...    1.0714e-03  Tolerance :   1.0000e-08
  Last Orbital Gradient      ...    1.2643e-06  Tolerance :   2.0000e-06
  Last Orbital Rotation      ...    1.6845e-06  Tolerance :   2.0000e-06


----------------
ORBITAL ENERGIES
----------------

  NO   OCC          E(Eh)            E(eV) 
   0   2.0000    -118.610114     -3227.5453 
   1   2.0000    -118.605321     -3227.4149 
   2   2.0000    -118.605320     -3227.4148 
   3   2.0000     -12.322335      -335.3078 
   4   2.0000     -12.318427      -335.2014 
   5   2.0000     -12.318404      -335.2008 
   6   2.0000      -9.570930      -260.4382 
   7   2.0000      -9.570927      -260.4382 
   8   2.0000      -9.570926      -260.4381 
   9   2.0000      -9.567013      -260.3317 
  10   2.0000      -9.567012      -260.3316 
  11   2.0000      -9.566917      -260.3290 
  12   2.0000      -9.566914      -260.3290 
  13   2.0000      -9.566912      -260.3289 
  14   2.0000      -9.566910      -260.3288 
  15   2.0000      -1.288070       -35.0502 
  16   2.0000      -1.278666       -34.7943 
  17   2.0000      -1.269570       -34.5467 
  18   2.0000      -0.634044       -17.2532 
  19   2.0000      -0.607948       -16.5431 
  20   2.0000      -0.599958       -16.3257 
  21   2.0000      -0.595207       -16.1964 
  22   2.0000      -0.591637       -16.0993 
  23   2.0000      -0.583384       -15.8747 
  24   2.0000      -0.582606       -15.8535 
  25   2.0000      -0.579947       -15.7812 
  26   2.0000      -0.550037       -14.9673 
  27   0.0000       0.114870         3.1258 
  28   0.0000       0.121959         3.3187 
  29   0.0000       0.134541         3.6611 
  30   0.0000       0.135538         3.6882 
  31   0.0000       0.168389         4.5821 
  32   0.0000       0.173305         4.7159 
  33   0.0000       0.174263         4.7419 
  34   0.0000       0.177612         4.8331 
  35   0.0000       0.206967         5.6318 
  36   0.0000       0.207362         5.6426 
  37   0.0000       0.295279         8.0350 
*Only the first 10 virtual orbitals were printed.

                    ********************************
                    * MULLIKEN POPULATION ANALYSIS *
                    ********************************

-------------------------
MULLIKEN FRAGMENT CHARGES
-------------------------
 Fragment   0 :   0.000201
 Fragment   1 :  -0.000401
 Fragment   2 :   0.000201
Sum of fragment charges:    0.0000000

---------------------------------
MULLIKEN FRAGMENT OVERLAP CHARGES
---------------------------------
                  0          1          2    
      0      18.064163  -0.003089  -0.125639
      1      -0.003089  18.003490  -0.003089
      2      -0.125639  -0.003089  18.064163

-----------------------
MULLIKEN ATOMIC CHARGES
-----------------------
   0 Ar:    0.000201
   1 Ar:   -0.000401
   2 Ar:    0.000201
Sum of atomic charges:    0.0000000

--------------------------------
MULLIKEN REDUCED ORBITAL CHARGES
--------------------------------
  0 Ars       :     5.994475  s :     5.994475
      pz      :     3.999633  p :    12.003729
      px      :     4.000594
      py      :     4.003502
      dz2     :     0.000172  d :     0.001595
      dxz     :     0.000078
      dyz     :     0.000281
      dx2y2   :     0.000618
      dxy     :     0.000448

  1 Ars       :     5.998781  s :     5.998781
      pz      :     3.999960  p :    12.001158
      px      :     4.000860
      py      :     4.000337
      dz2     :     0.000075  d :     0.000462
      dxz     :     0.000042
      dyz     :     0.000015
      dx2y2   :     0.000166
      dxy     :     0.000164

  2 Ars       :     5.994475  s :     5.994475
      pz      :     3.999633  p :    12.003729
      px      :     4.000808
      py      :     4.003287
      dz2     :     0.000172  d :     0.001595
      dxz     :     0.000066
      dyz     :     0.000293
      dx2y2   :     0.000440
      dxy     :     0.000625



                     *******************************
                     * LOEWDIN POPULATION ANALYSIS *
                     *******************************

------------------------
LOEWDIN FRAGMENT CHARGES
------------------------
 Fragment   0 :  -0.001427
 Fragment   1 :   0.002853
 Fragment   2 :  -0.001427

----------------------------
LOEWDIN FRAGMENT BOND ORDERS
----------------------------
                  0          1          2    
      0      18.001427   0.059578   0.284815
      1       0.059578  17.997147   0.059578
      2       0.284815   0.059578  18.001427

----------------------
LOEWDIN ATOMIC CHARGES
----------------------
   0 Ar:   -0.001427
   1 Ar:    0.002853
   2 Ar:   -0.001427

-------------------------------
LOEWDIN REDUCED ORBITAL CHARGES
-------------------------------
  0 Ars       :     5.968916  s :     5.968916
      pz      :     3.998562  p :    12.008257
      px      :     4.005533
      py      :     4.004162
      dz2     :     0.005397  d :     0.024254
      dxz     :     0.000243
      dyz     :     0.001255
      dx2y2   :     0.008777
      dxy     :     0.008582

  1 Ars       :     5.987612  s :     5.987612
      pz      :     3.999849  p :    12.007856
      px      :     4.006087
      py      :     4.001920
      dz2     :     0.000376  d :     0.001678
      dxz     :     0.000021
      dyz     :     0.000010
      dx2y2   :     0.000639
      dxy     :     0.000632

  2 Ars       :     5.968916  s :     5.968916
      pz      :     3.998562  p :    12.008257
      px      :     4.001001
      py      :     4.008694
      dz2     :     0.005397  d :     0.024254
      dxz     :     0.000233
      dyz     :     0.001266
      dx2y2   :     0.008204
      dxy     :     0.009154



                      *****************************
                      * MAYER POPULATION ANALYSIS *
                      *****************************

  NA   - Mulliken gross atomic population
  ZA   - Total nuclear charge
  QA   - Mulliken gross atomic charge
  VA   - Mayer's total valence
  BVA  - Mayer's bonded valence
  FA   - Mayer's free valence

  ATOM       NA         ZA         QA         VA         BVA        FA
  0 Ar    17.9998    18.0000     0.0002    -0.0259    -0.0259     0.0000
  1 Ar    18.0004    18.0000    -0.0004     0.0042     0.0042     0.0000
  2 Ar    17.9998    18.0000     0.0002    -0.0259    -0.0259     0.0000

  Mayer bond orders larger than 0.100000
  => no bond orders to print

-------
TIMINGS
-------

Total SCF time: 0 days 0 hours 0 min 3 sec 

Total time                  ....       3.780 sec
Sum of individual times     ....       3.770 sec  ( 99.7%)

SCF preparation             ....       0.035 sec  (  0.9%)
Fock matrix formation       ....       3.713 sec  ( 98.2%)
  Startup                   ....       0.001 sec  (  0.0% of F)
  Coulomb+Exchange Fock     ....       3.708 sec  ( 99.9% of F)
Diagonalization             ....       0.000 sec  (  0.0%)
Density matrix formation    ....       0.003 sec  (  0.1%)
Total Energy calculation    ....       0.001 sec  (  0.0%)
Population analysis         ....       0.002 sec  (  0.1%)
Orbital Transformation      ....       0.003 sec  (  0.1%)
Orbital Orthonormalization  ....       0.000 sec  (  0.0%)
DIIS solution               ....       0.009 sec  (  0.2%)
SOSCF solution              ....       0.004 sec  (  0.1%)
Finished LeanSCF after   3.8 sec

Maximum memory used throughout the entire LEANSCF-calculation: 8.7 MB

------------------------------------------------------------------------------
                         ORCA PROPERTY INTEGRAL CALCULATIONS
------------------------------------------------------------------------------

GBWName                                   ... AR3LD_3.6_2.8_3.6.gbw
Number of atoms                           ...      3
Number of basis functions                 ...    150
Max core memory                           ...   1024 MB

Dipole integrals                          ... YES
Quadrupole integrals                      ...  NO
Linear momentum integrals                 ... YES
Angular momentum integrals                ... YES
Higher moments length integrals           ...  NO
Higher moments velocity integrals         ...  NO
Kinetic energy integrals                  ...  NO
GIAO right hand sides                     ...  NO
GIAO dipole derivative integrals          ...  NO
SOC integrals                             ...  NO
EPR diamagnetic integrals (GIAO)          ...  NO
EPR gauge integrals                       ...  NO
Field gradient integrals                  ...  NO (   0 nuclei)
Spin-dipole/Fermi contact integrals       ...  NO (   0 nuclei)
Contact density integrals                 ...  NO (   0 nuclei)
Nucleus-orbit integrals                   ...  NO (   0 nuclei)
Geometric perturbations                   ...  NO (   3 nuclei)

Choice of electric origin   ... Center of mass
Position of electric origin ... (  2.9536,  1.6249,  0.0000) 
Choice of magnetic origin   ... GIAO
Position of magnetic origin ... (  0.0000,  0.0000,  0.0000) 

Calculating integrals                     ... Electric Dipole (Length)     done (  0.0 sec)
Calculating integrals                     ... Linear Momentum              done (  0.0 sec)
Calculating integrals                     ... Angular Momentum  (ElOri)    done (  0.0 sec)

Property integrals calculated in   0.0 sec

Maximum memory used throughout the entire PROPINT-calculation: 6.9 MB


--------------------------------------------------------------------------------
                             ORCA-MATRIX DRIVEN CI
--------------------------------------------------------------------------------


Wavefunction type
-----------------
Correlation treatment                      ...      CCSD     
Single excitations                         ... ON
Orbital optimization                       ... OFF
Calculation of Z vector                    ... OFF
Calculation of Brueckner orbitals          ... OFF
Perturbative triple excitations            ... OFF
Calculation of F12 correction              ... OFF
Frozen core treatment                      ... chemical core (30 el)
Reference Wavefunction                     ... RHF
  Internal Orbitals:    15 ...   26 ( 12 MO's/ 24 electrons)
  Virtual  Orbitals:    27 ...   80 ( 54 MO's              )
Number of AO's                             ...     81
Number of electrons                        ...     54
Number of correlated electrons             ...     24

Algorithmic settings
--------------------
Integral transformation                    ... All integrals via the RI transformation
K(C) Formation                             ... RI-DLPNO
   PNO-Integral Storage                    ... ON DISK
   PNO occupation number cut-off           ... 3.330e-07
   Singles PNO occupation number cut-off   ... 9.990e-09
   PNO Mulliken prescreening cut-off       ... 1.000e-03
   Domain cut-off (Mulliken population)    ... 1.000e-03
   PNO Normalization                       ...    1
Maximum number of iterations               ...        50
Convergence tolerance (max. residuum)      ... 1.000e-06
Level shift for amplitude update           ... 2.000e-01
Maximum number of DIIS vectors             ...         7
DIIS turned on at iteration                ...         0
Damping before turning on DIIS             ...     0.500
Damping after turning on DIIS              ...     0.000
Pair specific amplitude update             ... OFF
Natural orbital iterations                 ... OFF
Perturbative natural orbital generation    ... OFF
Printlevel                                 ... 2

Singles Fock matrix elements calculated using PNOs.

Memory handling:
----------------
Maximum memory for working arrays          ...    512 MB
Data storage in matrix containers          ... UNCOMPRESSED
Data type for integral storage             ... DOUBLE
In-Core Storage of quantities:
   Amplitudes+Sigma Vector      ... NO
   J+K operators                ... NO
   DIIS vectors                 ... NO
   3-external integrals         ... NO
   4-external integrals         ... NO

Localization treatment:
-----------------------
Localization option                        ...    2
Localization threshhold                    ... -1.0e+00
Using relative localization threshhold     ... 1.0e-08
Neglect threshold for strong pairs         ... 1.000e-05 Eh
Prescreening threshold for very weak pairs ... 1.000e-07 Eh
Using randomized seed for localization     ... on

Initializing the integral package          ... done
Localizing the valence orbitals
Localizing the valence orbitals
------------------------------------------------------------------------------
                           ORCA ORBITAL LOCALIZATION
------------------------------------------------------------------------------

Input orbitals are from                  ... AR3LD_3.6_2.8_3.6.proc0.gbw
Output orbitals are to                   ... AR3LD_3.6_2.8_3.6.proc0.loc
Max. number of iterations                ... 128
Localizations seeded randomly            ... on
Convergence tolerance                    ... 2.000e-07
Using relative localization threshhold   ... 1.000e-08
Threshold for strong local MOs           ... 9.500e-01
Threshold for bond MOs                   ... 8.500e-01
Operator                                 ... 0
Orbital range for localization           ... 15 to 26
Localization criterion                   ... FOSTER-BOYS
Doing the dipole integrals     ... o.k.
Entering Jacobi type localization:
Using Cholesky decomposition as initial guess.
Initial value of the localization sum :   160.797016
ITERATION   0 : L=  167.6674754393 DL=  6.87e+00 (MAX-T)=  45.000 
ITERATION   1 : L=  167.6808723531 DL=  1.34e-02 (MAX-T)=   2.325 
ITERATION   2 : L=  167.6827092178 DL=  1.84e-03 (MAX-T)=   0.802 
ITERATION   3 : L=  167.6840161217 DL=  1.31e-03 (MAX-T)=   0.923 
ITERATION   4 : L=  167.6851989694 DL=  1.18e-03 (MAX-T)=   0.896 
ITERATION   5 : L=  167.6864843700 DL=  1.29e-03 (MAX-T)=   0.856 
ITERATION   6 : L=  167.6874421866 DL=  9.58e-04 (MAX-T)=   0.588 
ITERATION   7 : L=  167.6882273925 DL=  7.85e-04 (MAX-T)=   0.640 
ITERATION   8 : L=  167.6888560441 DL=  6.29e-04 (MAX-T)=   0.475 
ITERATION   9 : L=  167.6894170564 DL=  5.61e-04 (MAX-T)=   0.420 
ITERATION  10 : L=  167.6900705512 DL=  6.53e-04 (MAX-T)=   0.549 
ITERATION  11 : L=  167.6906163256 DL=  5.46e-04 (MAX-T)=   0.478 
ITERATION  12 : L=  167.6910225160 DL=  4.06e-04 (MAX-T)=   0.401 
ITERATION  13 : L=  167.6915691882 DL=  5.47e-04 (MAX-T)=   0.489 
ITERATION  14 : L=  167.6920647210 DL=  4.96e-04 (MAX-T)=   0.511 
ITERATION  15 : L=  167.6924935745 DL=  4.29e-04 (MAX-T)=   0.502 
ITERATION  16 : L=  167.6931337403 DL=  6.40e-04 (MAX-T)=   0.600 
ITERATION  17 : L=  167.6936134648 DL=  4.80e-04 (MAX-T)=   0.553 
ITERATION  18 : L=  167.6941634538 DL=  5.50e-04 (MAX-T)=   0.627 
ITERATION  19 : L=  167.6947556629 DL=  5.92e-04 (MAX-T)=   0.746 
ITERATION  20 : L=  167.6956889971 DL=  9.33e-04 (MAX-T)=   0.762 
ITERATION  21 : L=  167.6966282785 DL=  9.39e-04 (MAX-T)=   0.842 
ITERATION  22 : L=  167.6977447743 DL=  1.12e-03 (MAX-T)=   0.865 
ITERATION  23 : L=  167.6986973229 DL=  9.53e-04 (MAX-T)=   0.784 
ITERATION  24 : L=  167.7000307065 DL=  1.33e-03 (MAX-T)=   0.952 
ITERATION  25 : L=  167.7014647954 DL=  1.43e-03 (MAX-T)=   0.921 
ITERATION  26 : L=  167.7029173333 DL=  1.45e-03 (MAX-T)=   0.966 
ITERATION  27 : L=  167.7040987615 DL=  1.18e-03 (MAX-T)=   0.942 
ITERATION  28 : L=  167.7050129598 DL=  9.14e-04 (MAX-T)=   0.940 
ITERATION  29 : L=  167.7061795488 DL=  1.17e-03 (MAX-T)=   0.867 
ITERATION  30 : L=  167.7071896853 DL=  1.01e-03 (MAX-T)=   0.801 
ITERATION  31 : L=  167.7082074598 DL=  1.02e-03 (MAX-T)=   0.815 
ITERATION  32 : L=  167.7088097691 DL=  6.02e-04 (MAX-T)=   0.696 
ITERATION  33 : L=  167.7094418257 DL=  6.32e-04 (MAX-T)=   0.635 
ITERATION  34 : L=  167.7099065606 DL=  4.65e-04 (MAX-T)=   0.671 
ITERATION  35 : L=  167.7104428317 DL=  5.36e-04 (MAX-T)=   0.453 
ITERATION  36 : L=  167.7107150493 DL=  2.72e-04 (MAX-T)=   0.522 
ITERATION  37 : L=  167.7110183988 DL=  3.03e-04 (MAX-T)=   0.491 
ITERATION  38 : L=  167.7113159323 DL=  2.98e-04 (MAX-T)=   0.385 
ITERATION  39 : L=  167.7115888068 DL=  2.73e-04 (MAX-T)=   0.369 
ITERATION  40 : L=  167.7117635409 DL=  1.75e-04 (MAX-T)=   0.378 
ITERATION  41 : L=  167.7119322692 DL=  1.69e-04 (MAX-T)=   0.340 
ITERATION  42 : L=  167.7120786592 DL=  1.46e-04 (MAX-T)=   0.272 
ITERATION  43 : L=  167.7121761312 DL=  9.75e-05 (MAX-T)=   0.259 
ITERATION  44 : L=  167.7122545916 DL=  7.85e-05 (MAX-T)=   0.209 
ITERATION  45 : L=  167.7123161419 DL=  6.16e-05 (MAX-T)=   0.214 
ITERATION  46 : L=  167.7123695522 DL=  5.34e-05 (MAX-T)=   0.197 
ITERATION  47 : L=  167.7124170110 DL=  4.75e-05 (MAX-T)=   0.176 
ITERATION  48 : L=  167.7124511735 DL=  3.42e-05 (MAX-T)=   0.144 
ITERATION  49 : L=  167.7124793446 DL=  2.82e-05 (MAX-T)=   0.141 
ITERATION  50 : L=  167.7125057490 DL=  2.64e-05 (MAX-T)=   0.118 
ITERATION  51 : L=  167.7125299786 DL=  2.42e-05 (MAX-T)=   0.109 
ITERATION  52 : L=  167.7125494800 DL=  1.95e-05 (MAX-T)=   0.092 
ITERATION  53 : L=  167.7125635743 DL=  1.41e-05 (MAX-T)=   0.074 
ITERATION  54 : L=  167.7125765351 DL=  1.30e-05 (MAX-T)=   0.072 
ITERATION  55 : L=  167.7125880181 DL=  1.15e-05 (MAX-T)=   0.062 
ITERATION  56 : L=  167.7126015913 DL=  1.36e-05 (MAX-T)=   0.065 
ITERATION  57 : L=  167.7126110468 DL=  9.46e-06 (MAX-T)=   0.063 
ITERATION  58 : L=  167.7126221164 DL=  1.11e-05 (MAX-T)=   0.067 
ITERATION  59 : L=  167.7126312393 DL=  9.12e-06 (MAX-T)=   0.051 
ITERATION  60 : L=  167.7126408775 DL=  9.64e-06 (MAX-T)=   0.061 
ITERATION  61 : L=  167.7126503998 DL=  9.52e-06 (MAX-T)=   0.069 
ITERATION  62 : L=  167.7126585540 DL=  8.15e-06 (MAX-T)=   0.061 
ITERATION  63 : L=  167.7126646634 DL=  6.11e-06 (MAX-T)=   0.056 
ITERATION  64 : L=  167.7126722898 DL=  7.63e-06 (MAX-T)=   0.061 
ITERATION  65 : L=  167.7126788187 DL=  6.53e-06 (MAX-T)=   0.065 
ITERATION  66 : L=  167.7126872747 DL=  8.46e-06 (MAX-T)=   0.052 
ITERATION  67 : L=  167.7126953027 DL=  8.03e-06 (MAX-T)=   0.053 
ITERATION  68 : L=  167.7127026727 DL=  7.37e-06 (MAX-T)=   0.054 
ITERATION  69 : L=  167.7127098858 DL=  7.21e-06 (MAX-T)=   0.052 
ITERATION  70 : L=  167.7127162728 DL=  6.39e-06 (MAX-T)=   0.055 
ITERATION  71 : L=  167.7127235732 DL=  7.30e-06 (MAX-T)=   0.056 
ITERATION  72 : L=  167.7127289968 DL=  5.42e-06 (MAX-T)=   0.049 
ITERATION  73 : L=  167.7127349606 DL=  5.96e-06 (MAX-T)=   0.062 
ITERATION  74 : L=  167.7127424269 DL=  7.47e-06 (MAX-T)=   0.052 
ITERATION  75 : L=  167.7127475652 DL=  5.14e-06 (MAX-T)=   0.061 
ITERATION  76 : L=  167.7127544016 DL=  6.84e-06 (MAX-T)=   0.054 
ITERATION  77 : L=  167.7127609444 DL=  6.54e-06 (MAX-T)=   0.051 
ITERATION  78 : L=  167.7127663052 DL=  5.36e-06 (MAX-T)=   0.046 
ITERATION  79 : L=  167.7127718851 DL=  5.58e-06 (MAX-T)=   0.059 
ITERATION  80 : L=  167.7127769550 DL=  5.07e-06 (MAX-T)=   0.042 
ITERATION  81 : L=  167.7127837715 DL=  6.82e-06 (MAX-T)=   0.049 
ITERATION  82 : L=  167.7127887639 DL=  4.99e-06 (MAX-T)=   0.043 
ITERATION  83 : L=  167.7127950001 DL=  6.24e-06 (MAX-T)=   0.045 
ITERATION  84 : L=  167.7128009972 DL=  6.00e-06 (MAX-T)=   0.048 
ITERATION  85 : L=  167.7128070105 DL=  6.01e-06 (MAX-T)=   0.049 
ITERATION  86 : L=  167.7128135882 DL=  6.58e-06 (MAX-T)=   0.049 
ITERATION  87 : L=  167.7128193225 DL=  5.73e-06 (MAX-T)=   0.048 
ITERATION  88 : L=  167.7128247093 DL=  5.39e-06 (MAX-T)=   0.052 
ITERATION  89 : L=  167.7128296276 DL=  4.92e-06 (MAX-T)=   0.047 
ITERATION  90 : L=  167.7128356946 DL=  6.07e-06 (MAX-T)=   0.050 
ITERATION  91 : L=  167.7128419021 DL=  6.21e-06 (MAX-T)=   0.044 
ITERATION  92 : L=  167.7128475702 DL=  5.67e-06 (MAX-T)=   0.048 
ITERATION  93 : L=  167.7128536412 DL=  6.07e-06 (MAX-T)=   0.049 
ITERATION  94 : L=  167.7128579815 DL=  4.34e-06 (MAX-T)=   0.043 
ITERATION  95 : L=  167.7128633807 DL=  5.40e-06 (MAX-T)=   0.046 
ITERATION  96 : L=  167.7128681972 DL=  4.82e-06 (MAX-T)=   0.039 
ITERATION  97 : L=  167.7128732768 DL=  5.08e-06 (MAX-T)=   0.045 
ITERATION  98 : L=  167.7128770781 DL=  3.80e-06 (MAX-T)=   0.035 
ITERATION  99 : L=  167.7128830412 DL=  5.96e-06 (MAX-T)=   0.050 
ITERATION 100 : L=  167.7128883973 DL=  5.36e-06 (MAX-T)=   0.048 
ITERATION 101 : L=  167.7128930425 DL=  4.65e-06 (MAX-T)=   0.045 
ITERATION 102 : L=  167.7128985265 DL=  5.48e-06 (MAX-T)=   0.053 
ITERATION 103 : L=  167.7129037133 DL=  5.19e-06 (MAX-T)=   0.055 
ITERATION 104 : L=  167.7129097243 DL=  6.01e-06 (MAX-T)=   0.050 
ITERATION 105 : L=  167.7129144925 DL=  4.77e-06 (MAX-T)=   0.037 
ITERATION 106 : L=  167.7129190901 DL=  4.60e-06 (MAX-T)=   0.049 
ITERATION 107 : L=  167.7129246151 DL=  5.53e-06 (MAX-T)=   0.050 
ITERATION 108 : L=  167.7129302552 DL=  5.64e-06 (MAX-T)=   0.053 
ITERATION 109 : L=  167.7129349428 DL=  4.69e-06 (MAX-T)=   0.041 
ITERATION 110 : L=  167.7129411239 DL=  6.18e-06 (MAX-T)=   0.052 
ITERATION 111 : L=  167.7129468240 DL=  5.70e-06 (MAX-T)=   0.045 
ITERATION 112 : L=  167.7129510294 DL=  4.21e-06 (MAX-T)=   0.045 
ITERATION 113 : L=  167.7129569073 DL=  5.88e-06 (MAX-T)=   0.051 
ITERATION 114 : L=  167.7129628849 DL=  5.98e-06 (MAX-T)=   0.050 
ITERATION 115 : L=  167.7129678976 DL=  5.01e-06 (MAX-T)=   0.052 
ITERATION 116 : L=  167.7129736643 DL=  5.77e-06 (MAX-T)=   0.044 
ITERATION 117 : L=  167.7129783046 DL=  4.64e-06 (MAX-T)=   0.049 
ITERATION 118 : L=  167.7129835752 DL=  5.27e-06 (MAX-T)=   0.055 
ITERATION 119 : L=  167.7129886736 DL=  5.10e-06 (MAX-T)=   0.043 
ITERATION 120 : L=  167.7129932662 DL=  4.59e-06 (MAX-T)=   0.057 
ITERATION 121 : L=  167.7129987785 DL=  5.51e-06 (MAX-T)=   0.060 
ITERATION 122 : L=  167.7130034120 DL=  4.63e-06 (MAX-T)=   0.058 
ITERATION 123 : L=  167.7130101719 DL=  6.76e-06 (MAX-T)=   0.055 
ITERATION 124 : L=  167.7130152234 DL=  5.05e-06 (MAX-T)=   0.045 
ITERATION 125 : L=  167.7130219782 DL=  6.75e-06 (MAX-T)=   0.053 
ITERATION 126 : L=  167.7130279840 DL=  6.01e-06 (MAX-T)=   0.060 
ITERATION 127 : L=  167.7130327453 DL=  4.76e-06 (MAX-T)=   0.044 
MAXIMUM NO OF ITERATIONS EXCEEDED - LOCALIZATION NOT CONVERGED


--------------------------------------------------------------------------------
                    LOCALIZED MOLECULAR ORBITAL COMPOSITIONS
--------------------------------------------------------------------------------

The Mulliken populations for each LMO on each atom are computed
The LMO`s will be ordered according to atom index and type
  (A) Strongly localized MO`s have populations of >=0.950 on one atom
  (B) Two center bond orbitals have populations of >=0.850 on two atoms
  (C) Other MO`s are considered to be `delocalized`

FOUND  -  12 strongly local MO`s
       -   0 two center bond MO`s
       -   0 significantly delocalized MO`s

Rather strongly localized orbitals:
MO  26:   2Ar -   1.001943
MO  25:   2Ar -   1.002165
MO  24:   2Ar -   1.002194
MO  23:   2Ar -   1.001950
MO  22:   1Ar -   0.999887
MO  21:   1Ar -   0.999977
MO  20:   1Ar -   0.999859
MO  19:   1Ar -   1.000336
MO  18:   0Ar -   1.001970
MO  17:   0Ar -   1.001936
MO  16:   0Ar -   1.002393
MO  15:   0Ar -   1.001954
Localized MO's were stored in: AR3LD_3.6_2.8_3.6.proc0.loc

Localizing the core orbitals
Localization sum:   201.388375096 
------------------------------------------------------------------------------
                           ORCA ORBITAL LOCALIZATION
------------------------------------------------------------------------------

Input orbitals are from                  ... AR3LD_3.6_2.8_3.6.proc0.loc
Output orbitals are to                   ... AR3LD_3.6_2.8_3.6.proc0.loc
Max. number of iterations                ... 128
Localizations seeded randomly            ... on
Convergence tolerance                    ... 2.000e-07
Using relative localization threshhold   ... 1.000e-08
Threshold for strong local MOs           ... 9.500e-01
Threshold for bond MOs                   ... 8.500e-01
Operator                                 ... 0
Orbital range for localization           ... 0 to 14
Localization criterion                   ... FOSTER-BOYS
Doing the dipole integrals     ... o.k.
Entering Jacobi type localization:
Using Cholesky decomposition as initial guess.
Initial value of the localization sum :   200.931900
ITERATION   0 : L=  201.3868661116 DL=  4.55e-01 (MAX-T)=  45.000 
ITERATION   1 : L=  201.3883691300 DL=  1.50e-03 (MAX-T)=   4.866 
ITERATION   2 : L=  201.3883750686 DL=  5.94e-06 (MAX-T)=   0.355 
ITERATION   3 : L=  201.3883750959 DL=  2.72e-08 (MAX-T)=   0.021 
LOCALIZATION SUM CONVERGED


--------------------------------------------------------------------------------
                    LOCALIZED MOLECULAR ORBITAL COMPOSITIONS
--------------------------------------------------------------------------------

The Mulliken populations for each LMO on each atom are computed
The LMO`s will be ordered according to atom index and type
  (A) Strongly localized MO`s have populations of >=0.950 on one atom
  (B) Two center bond orbitals have populations of >=0.850 on two atoms
  (C) Other MO`s are considered to be `delocalized`

FOUND  -  15 strongly local MO`s
       -   0 two center bond MO`s
       -   0 significantly delocalized MO`s

Rather strongly localized orbitals:
MO  14:   2Ar -   1.000069
MO  13:   2Ar -   1.000026
MO  12:   2Ar -   1.000035
MO  11:   2Ar -   1.000000
MO  10:   2Ar -   1.000025
MO   9:   1Ar -   1.000022
MO   8:   1Ar -   1.000011
MO   7:   1Ar -   1.000014
MO   6:   1Ar -   1.000000
MO   5:   1Ar -   1.000014
MO   4:   0Ar -   1.000024
MO   3:   0Ar -   1.000067
MO   2:   0Ar -   1.000036
MO   1:   0Ar -   1.000000
MO   0:   0Ar -   1.000027
Localized MO's were stored in: AR3LD_3.6_2.8_3.6.proc0.loc

Warning: reference  - re-canonicalizations have been set to INT 1 VIRT 1
Warning: internal orbitals are localized - no re-canonicalization of internal orbitals
Warning: UsePNO is turned on - no re-canonicalization of internal and virtual orbitals
Fock densities were made 
Making Fock matrix and reference energy:

--------------------------
CLOSED-SHELL FOCK OPERATOR
--------------------------

Time needed for Fock operator              ...            0.760 sec
Reference energy                           ...  -1580.388654396

--------------
DLPNO SETTINGS (2015 fully linear scaling implementation)
--------------

TCutMKN:           1.000e-03
TCutPAO:           1.000e-03
TCutPNO:           3.330e-07
TCutPNOSingles:    9.990e-09
TCutEN:            9.700e-01
TCutPAOExt:        1.000e-01
TCutPairs:         1.000e-05
TCutPre:           1.000e-07
TCutOSV:           1.000e-06
TCutDOij:          1.000e-05
TCutDO:            1.000e-02
TCutC:             1.000e-04
TCutCPAO:          1.000e-03
TCutCMO:           1.000e-03
TScaleDOMP2PreScr: 2.000e+00
TScaleMKNMP2PreScr:1.000e+01
TScalePNOMP2PreScr:1.000e+00
PAO overlap thresh 1.000e-08
Using PNOs for Singles Fock computation
Use new domains
Use fully linear algorithm

--------------------------
Mulliken population of the LMOs            ... ok
Performing proximity check                 ... No problems found
Calculating differential overlap integrals ... ok

------------------------
PRESCREENING OF HF PAIRS
------------------------

   .... Finished loop over pairs

                  ============================================
                    30 of   78 PAIRS WERE SKIPPED as HF PAIRS
                  ============================================

Total time spent in skipping HF pairs                 ...     0.000 sec
--------------------------
ELECTRON PAIR PRESCREENING
--------------------------

Dipole-based pair screening          .... used

   TCutDOij = 1.000000e-05
   TCutPre  = 1.000000e-07
   .... Finished loop over pairs
Total time spent in the prescreening                  ...     0.000 sec
sum of pair energies estimated for screened out pairs ...       0.000000000000 Eh
Thresholds for map construction and integral transformation for crude MP2:
   TCutMKN                    ...     1.0e-02
   TCutDO                     ...     2.0e-02
   TCutPairs                  ...     1.0e-05
   TCutPNO_CrudeMP2           ...     3.3e-07
   TCutPNOSingles_CrudeMP2    ...     1.0e-08
--------------------------------
LOCAL RI TRANSFORMATION (IAVPAO)
--------------------------------

Orbital window:      15 to 26
Number of PAOs:      81
Basis functions:     81 (33 shells)
Aux. functions:     276 (84 shells)
Use SHARK:           on
Have SHARK:         yes

Processing maps (0.0 sec)
Average map sizes:
   Aux shells -> MOs              12.0
   Aux shells -> PAOs             81.0
   MOs        -> AO shells        33.0
   PAOs       -> AO shells        33.0

Calculating integrals (0.1 sec, 2.050 MB)
Sorting integrals (0.0 sec, 2.047 MB)
Total time for the integral transformation: 0.1 sec
--------------------------------
INITIAL GUESS AND PNO GENERATION
--------------------------------

Populations of internal orbitals onto Fragments:
  15:      1.002    0.000    0.002  assigned to fragment   1
  16:      1.002    0.000    0.002  assigned to fragment   1
  17:      1.002    0.000    0.002  assigned to fragment   1
  18:      1.002    0.000    0.002  assigned to fragment   1
  19:      0.000    1.000    0.000  assigned to fragment   2
  20:      0.000    1.000    0.000  assigned to fragment   2
  21:      0.000    1.000    0.000  assigned to fragment   2
  22:      0.000    1.000    0.000  assigned to fragment   2
  23:      0.002    0.000    1.002  assigned to fragment   3
  24:      0.002    0.000    1.002  assigned to fragment   3
  25:      0.002    0.000    1.002  assigned to fragment   3
  26:      0.002    0.000    1.002  assigned to fragment   3

Summary assignment:
   4 orbitals assigned to fragment   1
   4 orbitals assigned to fragment   2
   4 orbitals assigned to fragment   3

PNO truncation parameters                   .... 
    PAOOverlapThresh   =        1.000e-08

Pair selection                          .... 
  modified with fragment specific keywords
  Pairs will be selected according to these
  intra(inter)fragment cutoffs
  1 <-> 1
    Intrafragment pairs 1 <-> 1 neglected for CCSD
  1 <-> 2
    TCutPairs          =        1.000e-05
    TCutPNO            =        3.330e-07
    TCutMKN            =        1.000e-02
    TCutDO             =        2.000e-02
    TCutPNOSingles     =        9.990e-09
    TCutMP2Pairs       =        1.000e-06
  1 <-> 3
    TCutPairs          =        1.000e-05
    TCutPNO            =        3.330e-07
    TCutMKN            =        1.000e-02
    TCutDO             =        2.000e-02
    TCutPNOSingles     =        9.990e-09
    TCutMP2Pairs       =        1.000e-06
  2 <-> 2
    Intrafragment pairs 2 <-> 2 neglected for CCSD
  2 <-> 3
    TCutPairs          =        1.000e-05
    TCutPNO            =        3.330e-07
    TCutMKN            =        1.000e-02
    TCutDO             =        2.000e-02
    TCutPNOSingles     =        9.990e-09
    TCutMP2Pairs       =        1.000e-06
  3 <-> 3
    Intrafragment pairs 3 <-> 3 neglected for CCSD

Type of local MP2 treatment                 .... semi-local MP2
Strategy for PNO selection                  .... occupation number selection
Pair density normalization                  .... MP2 norm
Spin component scaling                      .... not used

   .... Finished loop over pairs
Making pair pair interaction lists          ... done

                       ===========================
                         48 OF   60 PAIRS ARE KEPT CCSD PAIRS
                          0 OF   60 PAIRS ARE KEPT MP2 PAIRS
                         12 OF   60 PAIRS ARE SKIPPED
                       ===========================

Total time spent in the initial guess                 ...     0.111 sec
SL-MP2 correlation energy (all non-screened pairs)    ...      -0.005018293168 Eh

Initial PNO correlation energy                        ...      -0.004905501990 Eh
sum of pair energies prescreened and skipped MP2 pairs...       0.000000000000 Eh
sum of pair energies of crude MP2 skipped pairs only  ...       0.000000000000 Eh
sum of MP2 pair energies for pairs that were not kept ...       0.000000000000 Eh
sum of PNO error estimates for the kept pairs         ...      -0.000112791178 Eh
                                                          --------------------
sum of all corrections                                         -0.000112791178
Initial total correlation energy                               -0.005018293168
Thresholds for map construction and integral transformation for fine MP2 and CCSD(T) calculation:
   TCutMKN   ...     1.0e-03
   TCutDO    ...     1.0e-02
   TCutPairs ...     1.0e-05
   TCutCMO   ...     1.0e-03
   TCutCPAO  ...     1.0e-03

--------------------------------
LOCAL RI TRANSFORMATION (IAVPAO)
--------------------------------

Orbital window:      15 to 26
Number of PAOs:      81
Basis functions:     81 (33 shells)
Aux. functions:     276 (84 shells)
Use SHARK:           on
Have SHARK:         yes

Processing maps (0.0 sec)
Average map sizes:
   Aux shells -> MOs              12.0
   Aux shells -> PAOs             81.0
   MOs        -> AO shells        33.0
   PAOs       -> AO shells        33.0

Calculating integrals (0.1 sec, 2.050 MB)
Sorting integrals (0.0 sec, 2.047 MB)
Total time for the integral transformation: 0.1 sec
--------------------------------
INITIAL GUESS AND PNO GENERATION
--------------------------------

Populations of internal orbitals onto Fragments:
  15:      1.002    0.000    0.002  assigned to fragment   1
  16:      1.002    0.000    0.002  assigned to fragment   1
  17:      1.002    0.000    0.002  assigned to fragment   1
  18:      1.002    0.000    0.002  assigned to fragment   1
  19:      0.000    1.000    0.000  assigned to fragment   2
  20:      0.000    1.000    0.000  assigned to fragment   2
  21:      0.000    1.000    0.000  assigned to fragment   2
  22:      0.000    1.000    0.000  assigned to fragment   2
  23:      0.002    0.000    1.002  assigned to fragment   3
  24:      0.002    0.000    1.002  assigned to fragment   3
  25:      0.002    0.000    1.002  assigned to fragment   3
  26:      0.002    0.000    1.002  assigned to fragment   3

Summary assignment:
   4 orbitals assigned to fragment   1
   4 orbitals assigned to fragment   2
   4 orbitals assigned to fragment   3

PNO truncation parameters                   .... 
    PAOOverlapThresh   =        1.000e-08

Pair selection                          .... 
  modified with fragment specific keywords
  Pairs will be selected according to these
  intra(inter)fragment cutoffs
  1 <-> 1
    Intrafragment pairs 1 <-> 1 neglected for CCSD
  1 <-> 2
    TCutPairs          =        1.000e-05
    TCutPNO            =        3.330e-07
    TCutMKN            =        1.000e-03
    TCutDO             =        1.000e-02
    TCutPNOSingles     =        9.990e-09
    TCutMP2Pairs       =        1.000e-06
  1 <-> 3
    TCutPairs          =        1.000e-05
    TCutPNO            =        3.330e-07
    TCutMKN            =        1.000e-03
    TCutDO             =        1.000e-02
    TCutPNOSingles     =        9.990e-09
    TCutMP2Pairs       =        1.000e-06
  2 <-> 2
    Intrafragment pairs 2 <-> 2 neglected for CCSD
  2 <-> 3
    TCutPairs          =        1.000e-05
    TCutPNO            =        3.330e-07
    TCutMKN            =        1.000e-03
    TCutDO             =        1.000e-02
    TCutPNOSingles     =        9.990e-09
    TCutMP2Pairs       =        1.000e-06
  3 <-> 3
    Intrafragment pairs 3 <-> 3 neglected for CCSD

Type of local MP2 treatment                 .... semi-local MP2
Strategy for PNO selection                  .... occupation number selection
Pair density normalization                  .... MP2 norm
Spin component scaling                      .... not used

   .... Finished loop over pairs

 PNO Occupation Number Statistics: 
  | Av. % of trace(Dij) retained        ...  98.339825857105
  | sigma^2 in % of trace(Dij) retained ...   4.82e-01
  | Av. % of trace(Di) retained         ...  99.999858348890
  | sigma^2 in % of trace(Di) retained  ...   5.58e-09
 Distributions of % trace(Dij) recovered:
  |   [90.0, 99.0) ...    35 ( 72.9 % of all pairs)
  |   [99.0, 99.9) ...    13 ( 27.1 % of all pairs)
 Distributions of % trace(Di) recovered :
  |       >= 99.9  ...    12 (100.0 % of all I-pairs )

Making pair pair interaction lists          ... done

                       ===========================
                         48 OF   60 PAIRS ARE KEPT
                       ===========================

Total time spent in the initial guess                 ...     0.205 sec
SL-MP2 correlation energy (all non-screened pairs)    ...      -0.005018235089 Eh

Initial PNO correlation energy                        ...      -0.004905424074 Eh
sum of pair energies estimated for screened out pairs ...       0.000000000000 Eh
sum of MP2 pair energies for pairs that were not kept ...       0.000000000000 Eh
sum of PNO error estimates for the kept pairs         ...      -0.000112811015 Eh
                                                          --------------------
sum of all corrections                                         -0.000112811015
Initial total correlation energy                               -0.005018235089
Thresholds for map construction and integral transformation for fine MP2 and CCSD(T) calculation:
   TCutMKN   ...     1.0e-03
   TCutDO    ...     1.0e-02
   TCutPairs ...     1.0e-05
   TCutCMO   ...     1.0e-03
   TCutCPAO  ...     1.0e-03

Time for aux screen maps:            0.000
Time for maps after fine MP2:            0.001
-----------------------------
LOCAL RI TRANSFORMATION (IJV)
-----------------------------

Orbital window:      15 to 26
Basis functions:     81 (33 shells)
Aux. functions:     276 (84 shells)
Use SHARK:           on

Processing maps (0.0 sec)
Average map sizes:
   Aux shells -> MOs(i)           12.0
   Aux shells -> MOs(j)           12.0
   MOs        -> AO shells        33.0

Calculating integrals NOTE: Switching SHARK to General Contraction for MDCI
      If that is not desired please turn off the PGCFlag in the input (%shark PGCFlag 0 end)
(0.4 sec, 0.306 MB)
Sorting integrals (0.0 sec, 0.303 MB)
Total time for the integral transformation: 0.4 sec
--------------------------------
LOCAL RI TRANSFORMATION (VABPAO)
--------------------------------

Number of PAOs:      81
Basis functions:     81 (33 shells)
Aux. functions:     276 (84 shells)
Use SHARK:           on

Processing maps (0.0 sec)
Average map sizes:
   Aux shells -> PAOs             81.0
   PAOs       -> AO shells        33.0

Calculating integrals NOTE: Switching SHARK to General Contraction for MDCI
      If that is not desired please turn off the PGCFlag in the input (%shark PGCFlag 0 end)
(0.4 sec, 13.819 MB)
Finished


-------------------------------------
Pair Pair Term precalculation with     
RI-(ij|mn) and (im|jn) transformation  
ON THE FLY                             
-------------------------------------

   IBatch   1 (of   1)              ... done (    0.542 sec)
Total EXT                           ...           0.542 sec

IAVPA Available = YES
VABPAO Available= YES
IJV Available   = YES
IJK Available   = NO
PNO3i Available = YES
PNO3j Available = YES
PNO4 Available  = YES
---------------------
RI-PNO TRANSFORMATION
---------------------

Total Number of PNOs                   ...   394
Average number of PNOs per pair        ...     8
Maximal number of PNOs per pair        ...    13
   #pairs with  1 -  5 PNOs   :    0
   #pairs with  6 - 10 PNOs   :   35
   #pairs with 11 - 15 PNOs   :   13
   #pairs with 16 - 20 PNOs   :    0
   #pairs with 21 - 25 PNOs   :    0
   #pairs with 26 - 30 PNOs   :    0
   #pairs with 31 - 35 PNOs   :    0
   #pairs with 36 - 40 PNOs   :    0
   #pairs with 41 - 45 PNOs   :    0
   #pairs with 46 - 50 PNOs   :    0

Generation of (ij|ab)[P] integrals            ... on
Generation of (ia|bc)[P],(ja|bc)[P] integrals ... on
Storage of 3 and 4 external integrals         ... on
Generation of ALL (ka|bc)[P] integrals        ... on
Keep RI integrals in memory                   ... off

Ibatch:  1 (of  1)
Starting 2-4 index PNO integral generation ... done

Timings:
Total PNO integral transformation time     ...          0.333 sec
Size of the 3-external file                ...         0 MB
Size of the 4-external file                ...         0 MB
Size of the IKJL file                      ...         0 MB
Size of the all 3-external file            ...         1 MB
Size of the 1-external file                ...         0 MB

Making pair/pair overlap matrices          ... done (    0.056 sec)
Size of the pair overlap file              ... 1 MB
Redoing the guess amplitudes               ... done (    0.000 sec)

-------------------------
FINAL STARTUP INFORMATION
-------------------------

E(0)                                       ...  -1580.388654396
E(SL-MP2)                                  ...     -0.005018235
E(SL-MP2) including corrections            ...     -0.005018235
Initial E(tot)                             ...  -1580.393672631
<T|T>                                      ...      0.001816170
Number of pairs included                   ... 48
Total number of pairs                      ... 78

------------------------------------------------
                  RHF COUPLED CLUSTER ITERATIONS
------------------------------------------------

Number of PNO amplitudes to be optimized   ...         3530
Number of non-PNO amplitudes               ...       139968
Untruncated number of regular amplitudes   ...       227448

Iter       E(tot)           E(Corr)          Delta-E          Residual     Time
  0  -1580.393672190     -0.004904983      0.000113252      0.000943628    0.07
                           *** Turning on DIIS ***
  1  -1580.393342876     -0.004575669      0.000329314      0.000198318    0.08
  2  -1580.393380722     -0.004613515     -0.000037846      0.000045967    0.07
  3  -1580.393382572     -0.004615365     -0.000001850      0.000017641    0.08
  4  -1580.393383267     -0.004616061     -0.000000696      0.000002728    0.07
  5  -1580.393383370     -0.004616163     -0.000000103      0.000000706    0.07
               --- The Coupled-Cluster iterations have converged ---

----------------------
COUPLED CLUSTER ENERGY
----------------------

E(0)                                       ...  -1580.388654396
E(CORR)(strong-pairs)                      ...     -0.004616163
E(CORR)(weak-pairs)                        ...     -0.000112811
E(CORR)(corrected)                         ...     -0.004728974
E(TOT)                                     ...  -1580.393383370
Singles Norm <S|S>**1/2                    ...      0.002516821  
T1 diagnostic                              ...      0.000513744  

------------------
LARGEST AMPLITUDES
------------------
  23-> 27  15-> 27       0.001772
  19-> 27  16-> 27       0.001711
  26-> 29  17-> 29       0.001585
  24-> 28  18-> 28       0.001557
  23-> 30  15-> 27       0.001499
  23-> 27  15-> 30       0.001498
  23-> 31  16-> 27       0.001422
  24-> 27  15-> 31       0.001409
  26-> 29  17-> 32       0.001409
  25-> 28  16-> 28       0.001379
  26-> 27  15-> 31       0.001378
  20-> 27  16-> 27       0.001374
  25-> 27  15-> 31       0.001367
  25-> 32  16-> 28       0.001352
  23-> 31  17-> 27       0.001330
  26-> 32  18-> 28       0.001301


 ===========================================================
         LOCAL ENERGY DECOMPOSITION FOR DLPNO-CC METHODS
 ===========================================================

Maximum Iterations for the Localization .. 600
Tolerance for the Localization          ..  1.00e-06
Number of fragments = 3
Fragment  1:  0
Fragment  2:  1
Fragment  3:  2

Populations of internal orbitals onto Fragments:
   0:      1.000    0.000    0.000  assigned to fragment   1
   1:      1.000    0.000    0.000  assigned to fragment   1
   2:      1.000    0.000    0.000  assigned to fragment   1
   3:      1.000    0.000    0.000  assigned to fragment   1
   4:      1.000    0.000    0.000  assigned to fragment   1
   5:      0.000    1.000    0.000  assigned to fragment   2
   6:      0.000    1.000    0.000  assigned to fragment   2
   7:      0.000    1.000    0.000  assigned to fragment   2
   8:      0.000    1.000    0.000  assigned to fragment   2
   9:      0.000    1.000    0.000  assigned to fragment   2
  10:      0.000    0.000    1.000  assigned to fragment   3
  11:      0.000    0.000    1.000  assigned to fragment   3
  12:      0.000    0.000    1.000  assigned to fragment   3
  13:      0.000    0.000    1.000  assigned to fragment   3
  14:      0.000    0.000    1.000  assigned to fragment   3
  15:      1.002    0.000    0.002  assigned to fragment   1
  16:      1.002    0.000    0.002  assigned to fragment   1
  17:      1.002    0.000    0.002  assigned to fragment   1
  18:      1.002    0.000    0.002  assigned to fragment   1
  19:      0.000    1.000    0.000  assigned to fragment   2
  20:      0.000    1.000    0.000  assigned to fragment   2
  21:      0.000    1.000    0.000  assigned to fragment   2
  22:      0.000    1.000    0.000  assigned to fragment   2
  23:      0.002    0.000    1.002  assigned to fragment   3
  24:      0.002    0.000    1.002  assigned to fragment   3
  25:      0.002    0.000    1.002  assigned to fragment   3
  26:      0.002    0.000    1.002  assigned to fragment   3

Summary assignment:
   9 orbitals assigned to fragment   1
   9 orbitals assigned to fragment   2
   9 orbitals assigned to fragment   3


--------------------------------
CORRELATION ENERGY DECOMPOSITION
--------------------------------


--------------------------------------------------
INTER- vs INTRA-FRAGMENT CORRELATION ENERGIES (Eh)
--------------------------------------------------

                                   Fragment   1            Fragment   2            Fragment   3            
                         ----------------------  ----------------------  ----------------------  
Intra strong pairs               0.000000000000         0.000000000000         0.000000000000  sum=        0.000000000000
Intra weak pairs                 0.000000000000         0.000000000000         0.000000000000  sum=        0.000000000000
Singles contribution            -0.000000000222         0.000000000026        -0.000000000263  sum=       -0.000000000459
                         ----------------------  ----------------------  ----------------------  
                                -0.000000000222         0.000000000026        -0.000000000263  sum=       -0.000000000459


Interaction correlation for Fragments   2 and   1:
--------------------------------------------------
Inter strong pairs               -0.000750448234 (   -0.471 kcal/mol)
Inter weak pairs                 -0.000022818395 (   -0.014 kcal/mol)
                          ----------------------
Total interaction                -0.000773266629 (   -0.485 kcal/mol)

Interaction correlation for Fragments   3 and   1:
--------------------------------------------------
Inter strong pairs               -0.003115971945 (   -1.955 kcal/mol)
Inter weak pairs                 -0.000065718619 (   -0.041 kcal/mol)
                          ----------------------
Total interaction                -0.003181690564 (   -1.997 kcal/mol)
Interaction correlation for Fragments   3 and   2:
--------------------------------------------------
Inter strong pairs               -0.000749742461 (   -0.470 kcal/mol)
Inter weak pairs                 -0.000024274001 (   -0.015 kcal/mol)
                          ----------------------
Total interaction                -0.000774016462 (   -0.486 kcal/mol)



Sum of INTRA-fragment correlation energies  =        -0.000000000459
Sum of INTER-fragment correlation energies  =        -0.004728973655
                                              ---------------------
Total correlation energy                    =        -0.004728974114

---------------------------------------------
DECOMPOSITION OF CCSD STRONG PAIRS INTO      
    DOUBLE EXCITATION TYPES (Eh)             
---------------------------------------------

Foster-Boys localization is used for localizing PNOs

Intra fragment contributions: 
INTRA Fragment 1                        0.000000000 
INTRA Fragment 2                        0.000000000 
INTRA Fragment 3                        0.000000000 

Charge transfer contributions: 
Charge Transfer 1 to 2                 -0.000017553 
Charge Transfer 1 to 3                 -0.000302759 
Charge Transfer 2 to 1                 -0.000016507 
Charge Transfer 2 to 3                 -0.000028440 
Charge Transfer 3 to 1                 -0.000316513 
Charge Transfer 3 to 2                 -0.000019259 

Dispersion contributions: 
Dispersion  2,1                        -0.000716389 
Dispersion  3,1                        -0.002496699 
Dispersion  3,2                        -0.000702043 

Singles contributions:                   
Singles energy                         -0.000000000 
 
Delocalized contributions: 
Delocalized correlation                 0.000000000 

#Time for LED analysis ..       0.0 (sec)



--------------------------------------------------------------------------------
                                    TIMINGS
--------------------------------------------------------------------------------


Total execution time                   ...        4.015 sec

Localization of occupied MO's          ...        0.107 sec (  2.7%)
Fock Matrix Formation                  ...        0.760 sec ( 18.9%)
Global overlap, Fock, MKN matrices     ...        0.078 sec (  1.9%)
Differential overlap integrals         ...        0.179 sec (  4.5%)
Organizing maps                        ...        0.002 sec (  0.1%)
RI 3-index integral generations        ...        0.984 sec ( 24.5%)
RI-PNO integral transformation         ...        0.935 sec ( 23.3%)
Initial Guess                          ...        0.324 sec (  8.1%)
DIIS Solver                            ...        0.006 sec (  0.2%)
State Vector Update                    ...        0.000 sec (  0.0%)
Sigma-vector construction              ...        0.430 sec ( 10.7%)
  <D|H|D>(0-ext)                       ...        0.044 sec ( 10.2% of sigma)
  <D|H|D>(2-ext)                       ...        0.091 sec ( 21.1% of sigma)
  <D|H|D>(4-ext)                       ...        0.006 sec (  1.3% of sigma)
  <D|H|D>(4-ext-corr)                  ...        0.019 sec (  4.5% of sigma)
  CCSD doubles correction              ...        0.008 sec (  1.9% of sigma)
  <S|H|S>                              ...        0.021 sec (  5.0% of sigma)
  <S|H|D>(1-ext)                       ...        0.021 sec (  4.8% of sigma)
  <S|H|D>(3-ext)                       ...        0.003 sec (  0.7% of sigma)
  Fock-dressing                        ...        0.130 sec ( 30.3% of sigma)
  Singles amplitudes                   ...        0.007 sec (  1.6% of sigma)
  (ik|jl)-dressing                     ...        0.032 sec (  7.4% of sigma)
  (ij|ab),(ia|jb)-dressing             ...        0.042 sec (  9.8% of sigma)
Local Energy Decomposition             ...        0.018 sec (  0.4% of ALL)


Maximum memory used throughout the entire MDCI-calculation: 98.8 MB
----------------------------   ----------------
Inter-fragment dispersion       -0.004027943
----------------------------   ----------------


-------------------------   --------------------
FINAL SINGLE POINT ENERGY     -1580.392682338239 
-------------------------   --------------------


------------------------------------------------------------------------------
                              ORCA PROPERTY CALCULATIONS
------------------------------------------------------------------------------

GBWName                                 ... AR3LD_3.6_2.8_3.6.gbw
Number of atoms                         ...      3
Number of basis functions               ...    150
Max core memory                         ...   1024 MB

Electric properties:
Dipole moment                           ... YES
Quadrupole moment                       ...  NO
Static polarizability (Dipole/Dipole)   ...  NO
Static polarizability (Dipole/Quad.)    ...  NO
Static polarizability (Quad./Quad.)     ...  NO
Static polarizability (Velocity)        ...  NO

Atomic electric properties:
Dipole moment                           ...  NO
Quadrupole moment                       ...  NO
Static polarizability                   ...  NO

Choice of electric origin               ... Center of mass
Position of electric origin             ...     2.953572     1.624911     0.000000

General magnetic properties:
Magnetizability                         ...  NO

EPR properties:
g-Tensor (aka g-matrix)                 ...  NO
Zero-Field splitting spin-orbit         ...  NO
Zero-field splitting spin-spin          ...  NO
Hyperfine couplings                     ...  NO (   0 nuclei)
Quadrupole couplings                    ...  NO (   0 nuclei)
Contact density                         ...  NO (   0 nuclei)

NMR properties:
Chemical shifts                         ...  NO (   0 nuclei)
Spin-rotation constants                 ...  NO (   0 nuclei)
Spin-spin couplings                     ...  NO (   0 nuclei,    0 pairs)

Choice of magnetic origin               ... GIAO
Position of magnetic origin             ...     0.000000     0.000000     0.000000

Properties with geometric perturbations:
SCF Hessian                             ...  NO
IR spectrum                             ...  NO
VCD spectrum                            ...  NO
X-ray spectroscopy properties:
SCF XES/XAS/RIXS spectra                ...  NO


-------------
DIPOLE MOMENT
-------------

Method             : SCF
Type of density    : Electron Density
Multiplicity       :   1
Irrep              :   0
Energy             : -1580.3886543957185040 Eh
Relativity type    : 
Basis              : AO
                                X                 Y                 Z
Electronic contribution:      0.001668566      -0.000704348       0.000000000
Nuclear contribution   :      0.000000000       0.000000000       0.000000000
                        -----------------------------------------
Total Dipole Moment    :      0.001668566      -0.000704348       0.000000000
                        -----------------------------------------
Magnitude (a.u.)       :      0.001811137
Magnitude (Debye)      :      0.004603544



--------------------
Rotational spectrum 
--------------------
 
Rotational constants in cm-1:             0.107650             0.057544             0.037499 
Rotational constants in MHz :          3227.278879          1725.127255          1124.194301 

Dipole components along the rotational axes: 
x,y,z [a.u.] :    -0.001811    -0.000000     0.000000 
x,y,z [Debye]:    -0.004604    -0.000000     0.000000 

 

Dipole moment calculation done in   0.0 sec 

Maximum memory used throughout the entire PROP-calculation: 6.8 MB

--------------------------------
SUGGESTED CITATIONS FOR THIS RUN
--------------------------------

Below you find a list of papers that are relevant to this ORCA run
We neither can nor want to force you to cite these papers, but we appreciate if you do
You receive ORCA, which is the product of decades of hard work by many enthusiastic individuals, for free
The only thing we kindly ask in return is that you cite our papers,
We deeply appreciate it, if you show your appreciation for ORCA by not just citing the generic ORCA reference.

Please note that relegating all ORCA citations to the supporting information does *not* help us.
SI sections are not indexed - citations you put there will not count into any citation statistics
But we need these citations in order to attract the funding resources that allow us to do what we are doing

Therefore, if you are a happy ORCA user, please consider citing a few of the papers listed below in the main body of your paper

In addition to the list printed below, the program has created the file AR3LD_3.6_2.8_3.6.bibtex that contains the list in bibtex format
You can import this file easily into all common literature databanks and citation aid programs


List of essential papers. We consider these as the minimum necessary citations

  1. Neese,F.
     Software update: the ORCA program system, version 5.0
     WIRES Comput. Molec. Sci., 2022 12(1)e1606
     doi.org/10.1002/wcms.1606

List of papers to cite with high priority. The work reported in these papers was absolutely
necessary for this run to complete.
Our perspective: the developers of density functionals and basis sets usually get cited in chemistry papers
Good! But without the algorithms to do something with them, the functionals or basis sets would not do anything.
Hence, in our opinion, the algorithm design and method developments papers are equally worthy of getting cited

  1. Neese,F.; Hansen,A.; Liakos,D.G.
     Efficient and accurate approximations to the local coupled cluster singles doubles method using a truncated pair natural orbital basis
     J. Chem. Phys., 2009 131 064103
     doi.org/10.1063/1.3173827
  2. Neese,F.; Wennmohs,F.; Hansen,A.
     Efficient and accurate local approximations to coupled-electron pair approaches: An attempt to revive the pair natural orbital method
     J. Chem. Phys., 2009 130 114108
     doi.org/10.1063/1.3086717
  3. Riplinger,C.; Neese,F.
     An efficient and near linear scaling pair natural orbital based local coupled cluster method
     J. Chem. Phys., 2013 138(3)Art. No. 034106
     doi.org/10.1063/1.4773581
  4. Datta,D.; Kossmann,S.; Neese,F.
     Analytic energy derivatives for the calculation of the first-order molecular properties using the domain-based local pair-natural orbital coupled-cluster theory
     J. Chem. Phys., 2016 145 
     doi.org/10.1063/1.4962369
  5. Riplinger,C.; Pinski,P.; Becker,U.; Valeev,E.F.; Neese,F.
     Sparse maps-A systematic infrastructure for reduced-scaling electronic structure methods. II. Linear scaling domain based pair natural orbital coupled cluster theory
     J. Chem. Phys., 2016 144 
     doi.org/10.1063/1.4939030
  6. Schneider,W.B.; Bistoni,G.; Sparta,M.; Saitow,M.; Riplinger,C.; Auer,A.A.; Neese,F.
     Decomposition of Intermolecular Interaction Energies within the Local Pair Natural Orbital Coupled Cluster Framework
     J. Theo. Comp. Chem., 2016 12 4778-4792
     doi.org/10.1021/acs.jctc.6b00523
  7. Bistoni,G.; Riplinger,C.; Minenkov,Y.; Cavallo,L.; Auer,A.A.; Neese,F.
     Treating Subvalence Correlation Effects in Domain Based Pair Natural Orbital Coupled Cluster Calculations: An Out-of-the-Box Approach
     J. Theo. Comp. Chem., 2017 13 3220-3227
     doi.org/10.1021/acs.jctc.7b00352
  8. Altun,A.; Neese,F.; Bistoni,G.
     HFLD: A Nonempirical London Dispersion-Corrected Hartree-Fock Method for the Quantification and Analysis of Noncovalent Interaction Energies of Large Molecular Systems
     J. Chem. Theory Comput., 2019 15 5894-5907
     doi.org/10.1021/acs.jctc.9b00425
  9. Neese,F.
     The SHARK Integral Generation and Digestion System
     J. Comp. Chem., 2022  1-16
     doi.org/10.1002/jcc.26942
 10. Altun,A.; Neese,F.; Bistoni,G.
     Open-Shell Variant of the London Dispersion-Corrected Hartree–Fock Method (HFLD) for the Quantification and Analysis of Noncovalent Interaction Energies
     J. Chem. Theory Comput., 2022 XX XXXX-XXXX
     doi.org/10.1021/acs.jctc.1c01295

List of suggested additional citations. These are papers that are important in the 'surrounding' of 
of this run, or papers that preceded the highly important papers. If you like your results we are grateful for a citation.

  1. Neese,F.
     The ORCA program system
     WIRES Comput. Molec. Sci., 2012 2(1)73-78
     doi.org/10.1002/wcms.81
  2. Neese,F.
     Software update: the ORCA program system, version 4.0
     WIRES Comput. Molec. Sci., 2018 8(1)1-6
     doi.org/10.1002/wcms.1327
  3. Neese,F.; Wennmohs,F.; Becker,U.; Riplinger,C.
     The ORCA quantum chemistry program package
     J. Chem. Phys., 2020 152 Art. No. L224108
     doi.org/10.1063/5.0004608
  4. Bistoni,G.
     Finding chemical concepts in the Hilbert space: Coupled cluster analyses of noncovalent interactions
     WIRES Comput. Molec. Sci., 2020 10(3)e1442
     doi.org/10.1002/wcms.1442

List of optional additional citations

  1. Neese,F.
     Approximate second-order SCF convergence for spin unrestricted wavefunctions
     Chem. Phys. Lett., 2000 325(1-3)93-98
     doi.org/10.1016/s0009-2614(00)00662-x

Timings for individual modules:

Sum of individual times          ...        9.421 sec (=   0.157 min)
Startup calculation              ...        1.334 sec (=   0.022 min)  14.2 %
SCF iterations                   ...        3.920 sec (=   0.065 min)  41.6 %
Property integrals               ...        0.050 sec (=   0.001 min)   0.5 %
Property calculations            ...        0.075 sec (=   0.001 min)   0.8 %
MDCI module                      ...        4.043 sec (=   0.067 min)  42.9 %
                             ****ORCA TERMINATED NORMALLY****
TOTAL RUN TIME: 0 days 0 hours 0 minutes 9 seconds 483 msec
