
                                 *****************
                                 * O   R   C   A *
                                 *****************

                                            #,                                       
                                            ###                                      
                                            ####                                     
                                            #####                                    
                                            ######                                   
                                           ########,                                 
                                     ,,################,,,,,                         
                               ,,#################################,,                 
                          ,,##########################################,,             
                       ,#########################################, ''#####,          
                    ,#############################################,,   '####,        
                  ,##################################################,,,,####,       
                ,###########''''           ''''###############################       
              ,#####''   ,,,,##########,,,,          '''####'''          '####       
            ,##' ,,,,###########################,,,                        '##       
           ' ,,###''''                  '''############,,,                           
         ,,##''                                '''############,,,,        ,,,,,,###''
      ,#''                                            '''#######################'''  
     '                                                          ''''####''''         
             ,#######,   #######,   ,#######,      ##                                
            ,#'     '#,  ##    ##  ,#'     '#,    #''#        ,####,   ,####,        
            ##       ##  ##   ,#'  ##            #'  '#       #'       #'  '#        
            ##       ##  #######   ##           ,######,      #####,   #    #        
            '#,     ,#'  ##    ##  '#,     ,#' ,#      #,     #,   #   #,  ,#        
             '#######'   ##     ##  '#######'  #'      '#     '####' # '####'        



                #########################################################
                #                        -***-                          #
                #          Department of theory and spectroscopy        #
                #                                                       #
                #                      Frank Neese                      #
                #                                                       #
                #     Directorship, Architecture, Infrastructure        #
                #                    SHARK, DRIVERS                     #
                #        Core code/Algorithms in most modules           #
                #                                                       #
                #        Max Planck Institute fuer Kohlenforschung      #
                #                Kaiser Wilhelm Platz 1                 #
                #                 D-45470 Muelheim/Ruhr                 #
                #                      Germany                          #
                #                                                       #
                #                  All rights reserved                  #
                #                        -***-                          #
                #########################################################


                         Program Version 6.0.0  -   RELEASE  -


 With contributions from (in alphabetic order):
   Daniel Aravena         : Magnetic Suceptibility
   Michael Atanasov       : Ab Initio Ligand Field Theory (pilot matlab implementation)
   Alexander A. Auer      : GIAO ZORA, VPT2 properties, NMR spectrum
   Ute Becker             : All parallelization in ORCA, NUMFREQ, NUMCALC
   Giovanni Bistoni       : ED, misc. LED, open-shell LED, HFLD
   Martin Brehm           : Molecular dynamics
   Dmytro Bykov           : pre 5.0 version of the SCF Hessian
   Marcos Casanova-Páez   : Triplet and SCS-CIS(D). UHF-(DLPNO)-IP/EA/STEOM-CCSD. UHF-CVS-IP/STEOM-CCSD
   Vijay G. Chilkuri      : MRCI spin determinant printing, contributions to CSF-ICE
   Pauline Colinet        : FMM embedding
   Dipayan Datta          : RHF DLPNO-CCSD density
   Achintya Kumar Dutta   : EOM-CC, STEOM-CC
   Nicolas Foglia         : Exact transition moments, OPA infrastructure, MCD improvements
   Dmitry Ganyushin       : Spin-Orbit,Spin-Spin,Magnetic field MRCI
   Miquel Garcia          : C-PCM and meta-GGA Hessian, CCSD/C-PCM, Gaussian charge scheme
   Tiago L. C. Gouveia    : GS-ROHF, GS-ROCIS
   Yang Guo               : DLPNO-NEVPT2, F12-NEVPT2, CIM, IAO-localization
   Andreas Hansen         : Spin unrestricted coupled pair/coupled cluster methods
   Ingolf Harden          : AUTO-CI MPn and infrastructure 
   Benjamin Helmich-Paris : MC-RPA, TRAH-(SCF,CASSCF), AVAS, COSX integrals, SCF dyn. polar.
   Lee Huntington         : MR-EOM, pCC
   Robert Izsak           : Overlap fitted RIJCOSX, COSX-SCS-MP3, EOM
   Riya Kayal             : Wick's Theorem for AUTO-CI, AUTO-CI UHF-CCSDT
   Emily Kempfer          : AUTO-CI, RHF CISDT and CCSDT
   Christian Kollmar      : KDIIS, OOCD, Brueckner-CCSD(T), CCSD density, CASPT2, CASPT2-K, improved NEVPT2
   Axel Koslowski         : Symmetry handling
   Simone Kossmann        : Meta GGA functionals, TD-DFT gradient, OOMP2, (MP2 Hessian; deprecated post 5.0)
   Lucas Lang             : DCDCAS
   Marvin Lechner         : AUTO-CI (C++ implementation), FIC-MRCC
   Spencer Leger          : CASSCF response
   Dagmar Lenk            : GEPOL surface, SMD, ORCA-2-JSON
   Dimitrios Liakos       : Extrapolation schemes; Compound Job, initial MDCI parallelization
   Dimitrios Manganas     : Further ROCIS development; embedding schemes. LFT, Crystal Embedding
   Dimitrios Pantazis     : SARC Basis sets
   Anastasios Papadopoulos: AUTO-CI, single reference methods and gradients
   Taras Petrenko         : pre 6.0 DFT Hessian and TD-DFT gradient, (ASA, deprecated), ECA, 1-Electron XAS/XES, NRVS
   Peter Pinski           : DLPNO-MP2, DLPNO-MP2 Gradient
   Christoph Reimann      : Effective Core Potentials
   Marius Retegan         : Local ZFS, SOC
   Christoph Riplinger    : Optimizer, TS searches, QM/MM, DLPNO-CCSD(T), (RO)-DLPNO pert. Triples
   Michael Roemelt        : Original ROCIS implementation
   Masaaki Saitow         : Open-shell DLPNO-CCSD energy and density
   Barbara Sandhoefer     : DKH picture change effects
   Kantharuban Sivalingam : CASSCF convergence/infrastructure, NEVPT2 and variants, FIC-MRCI
   Bernardo de Souza      : ESD, SOC TD-DFT
   Georgi Stoychev        : AutoAux, RI-MP2 NMR, DLPNO-MP2 response, X2C
   Van Anh Tran           : RI-MP2 g-tensors
   Willem Van den Heuvel  : Paramagnetic NMR
   Zikuan Wang            : NOTCH, Electric field optimization 
   Frank Wennmohs         : Technical directorship and infrastructure
   Hang Xu                : AUTO-CI-Response properties 


 We gratefully acknowledge several colleagues who have allowed us to
 interface, adapt or use parts of their codes:
   Stefan Grimme, W. Hujo, H. Kruse, P. Pracht,  : VdW corrections, initial TS optimization,
                  C. Bannwarth, S. Ehlert,         DFT functionals, gCP, sTDA/sTD-DF
                  L. Wittmann, M. Mueller
   Ed Valeev, F. Pavosevic, A. Kumar             : LibInt (2-el integral package), F12 methods
   Garnet Chan, S. Sharma, J. Yang, R. Olivares  : DMRG
   Ulf Ekstrom                                   : XCFun DFT Library
   Mihaly Kallay                                 : mrcc  (arbitrary order and MRCC methods)
   Frank Weinhold                                : gennbo (NPA and NBO analysis)
   Simon Mueller                                 : openCOSMO-RS
   Christopher J. Cramer and Donald G. Truhlar   : smd solvation model
   Lars Goerigk                                  : TD-DFT with DH, B97 family of functionals
   V. Asgeirsson, H. Jonsson                     : NEB implementation
   FAccTs GmbH                                   : IRC, NEB, NEB-TS, DLPNO-Multilevel, CI-OPT
                                                   MM, QMMM, 2- and 3-layer-ONIOM, Crystal-QMMM,
                                                   LR-CPCM, SF, NACMEs, symmetry and pop. for TD-DFT,
                                                   nearIR, NL-DFT gradient (VV10), updates on ESD,
                                                   ML-optimized integration grids, MBIS, APM,
                                                   GOAT, DOCKER, SOLVATOR, interface openCOSMO-RS
   S Lehtola, MJT Oliveira, MAL Marques          : LibXC Library
   Liviu Ungur et al                             : ANISO software


 Your calculation uses the libint2 library for the computation of 2-el integrals
 For citations please refer to: http://libint.valeyev.net

 Your ORCA version has been built with support for libXC version: 6.2.2
 For citations please refer to: https://libxc.gitlab.io

 This ORCA versions uses:
   CBLAS   interface :  Fast vector & matrix operations
   LAPACKE interface :  Fast linear algebra routines
   SCALAPACK package :  Parallel linear algebra routines
   Shared memory     :  Shared parallel matrices
   BLAS/LAPACK       :  OpenBLAS 0.3.27  USE64BITINT DYNAMIC_ARCH NO_AFFINITY Haswell SINGLE_THREADED
        Core in use  :  Haswell
   Copyright (c) 2011-2014, The OpenBLAS Project


================================================================================

----- Orbital basis set information -----
Your calculation utilizes the basis: aug-cc-pVDZ 
    H, B-Ne : Obtained from the ccRepo (grant-hill.group.shef.ac.uk/ccrepo) Feb. 2017
              R. A. Kendall, T. H. Dunning, Jr., R. J. Harrison, J. Chem. Phys. 96, 6796 (1992)
         He : Obtained from the ccRepo (grant-hill.group.shef.ac.uk/ccrepo) Feb. 2017
              D. E. Woon, T. H. Dunning, Jr., J. Chem. Phys. 100, 2975 (1994)
  Li-Be, Na : Obtained from the ccRepo (grant-hill.group.shef.ac.uk/ccrepo) Feb. 2017
              B. P. Prascher, D. E. Woon, K. A. Peterson, T. H. Dunning, Jr., A. K. Wilson, Theor. Chem. Acc. 128, 69 (2011)
         Mg : Obtained from the Peterson Research Group Website (tyr0.chem.wsu.edu/~kipeters) Feb. 2017
              B. P. Prascher, D. E. Woon, K. A. Peterson, T. H. Dunning, Jr., A. K. Wilson, Theor. Chem. Acc. 128, 69 (2011)
      Al-Ar : Obtained from the ccRepo (grant-hill.group.shef.ac.uk/ccrepo) Feb. 2017
              D. E. Woon, T. H. Dunning, Jr., J. Chem. Phys. 98, 1358 (1993)
      Sc-Zn : Obtained from the ccRepo (grant-hill.group.shef.ac.uk/ccrepo) Feb. 2017
              N. B. Balabanov, K. A. Peterson, J. Chem. Phys. 123, 064107 (2005)
              N. B. Balabanov, K. A. Peterson, J. Chem. Phys. 125, 074110 (2006)
      Ga-Kr : Obtained from the ccRepo (grant-hill.group.shef.ac.uk/ccrepo) Feb. 2017
              A. K. Wilson, D. E. Woon, K. A. Peterson, T. H. Dunning, Jr., J. Chem. Phys. 110, 7667 (1999)

----- AuxC basis set information -----
Your calculation utilizes the auxiliary basis: aug-cc-pVDZ/C 
  H-He, B, Ne, Al-Ar, Ga-Ge, Se-Br : Obtained from the EMSL Basis Set Exchange (bse.pnl.gov) Feb. 2017
                                     F. Weigend, A. Kohn, C. Hattig, J. Chem. Phys. 116, 3175 (2002)
                            Be, Mg : Obtained from the TURBOMOLE 7.0 basis set library
                                     C. Haettig, Phys. Chem. Chem. Phys. 7, 59 (2005)
                               C-F : Obtained from the EMSL Basis Set Exchange (bse.pnl.gov) Feb. 2017
                                     C. Haettig, Phys. Chem. Chem. Phys. 7, 59 (2005)
                                     F. Weigend, A. Kohn, C. Hattig, J. Chem. Phys. 116, 3175 (2002)
                                As : Obtained from the EMSL Basis Set Exchange (bse.pnl.gov) Feb. 2017
                                     C. Haettig, G. Schmitz, J. Kossmann, Phys. Chem. Chem. Phys. 14, 6549 (2012)
                                Kr : Obtained from the TURBOMOLE 7.0 basis set library
                                     F. Weigend, A. Kohn, C. Hattig, J. Chem. Phys. 116, 3175 (2002)
                                     S function revised in Sep. 2009

================================================================================
                                        WARNINGS
                       Please study these warnings very carefully!
================================================================================


WARNING: Post HF methods need fully converged wavefunctions
  ===> : Setting SCFConvForced true
         You can overwrite this default with %scf ConvForced false 


================================================================================
                                       INPUT FILE
================================================================================
NAME = AR3LD_3.6_3.6_3.2.inp
|  1> # MP2 scan of the potential energy curve for Ar...Ar
|  2>                 ! HFLD aug-cc-pvdz aug-cc-pvdz/C verytightscf
|  3>                 *xyz 0 1
|  4>                 Ar(1)	0    0	0.00000000000000
|  5>                 Ar(2)	3.2	0    0.00000000000000
|  6>                 Ar(3)	1.6000000000000003	3.22490309931942    0.00000000000000
|  7>                 **                         ****END OF INPUT****
================================================================================

                       ****************************
                       * Single Point Calculation *
                       ****************************

---------------------------------
CARTESIAN COORDINATES (ANGSTROEM)
---------------------------------
  Ar     0.000000    0.000000    0.000000
  Ar     3.200000    0.000000    0.000000
  Ar     1.600000    3.224903    0.000000

----------------------------
CARTESIAN COORDINATES (A.U.)
----------------------------
  NO LB      ZA    FRAG     MASS         X           Y           Z
   0 Ar   18.0000    1    39.948    0.000000    0.000000    0.000000
   1 Ar   18.0000    2    39.948    6.047124    0.000000    0.000000
   2 Ar   18.0000    3    39.948    3.023562    6.094184    0.000000

----------------------------------------------
CARTESIAN COORDINATES OF FRAGMENTS (ANGSTROEM)
----------------------------------------------

 FRAGMENT 1 
  Ar    0.000000    0.000000    0.000000

 FRAGMENT 2 
  Ar    3.200000    0.000000    0.000000

 FRAGMENT 3 
  Ar    1.600000    3.224903    0.000000

--------------------------------
INTERNAL COORDINATES (ANGSTROEM)
--------------------------------
 Ar     0   0   0     0.000000000000     0.00000000     0.00000000
 Ar     1   0   0     3.200000000000     0.00000000     0.00000000
 Ar     2   1   0     3.600000000000    63.61220004     0.00000000

---------------------------
INTERNAL COORDINATES (A.U.)
---------------------------
 Ar     0   0   0     0.000000000000     0.00000000     0.00000000
 Ar     1   0   0     6.047123628548     0.00000000     0.00000000
 Ar     2   1   0     6.803014082117    63.61220004     0.00000000

---------------------
BASIS SET INFORMATION
---------------------
There are 1 groups of distinct atoms

 Group   1 Type Ar  : 35s16p2d contracted to 5s4p2d pattern {11111111/7711/11}

Atom   0Ar   basis set group =>   1
Atom   1Ar   basis set group =>   1
Atom   2Ar   basis set group =>   1
---------------------------------
AUXILIARY/C BASIS SET INFORMATION
---------------------------------
There are 1 groups of distinct atoms

 Group   1 Type Ar  : 10s8p6d4f contracted to 10s8p6d4f pattern {1111111111/11111111/111111/1111}

Atom   0Ar   basis set group =>   1
Atom   1Ar   basis set group =>   1
Atom   2Ar   basis set group =>   1
------------------------------------------------------------------------------
                             ORCA STARTUP CALCULATIONS
------------------------------------------------------------------------------
------------------------------------------------------------------------------
                   ___                                                        
                  /   \      - P O W E R E D   B Y -                         
                 /     \                                                     
                 |  |  |   _    _      __       _____    __    __             
                 |  |  |  | |  | |    /  \     |  _  \  |  |  /  |          
                  \  \/   | |  | |   /    \    | | | |  |  | /  /          
                 / \  \   | |__| |  /  /\  \   | |_| |  |  |/  /          
                |  |  |   |  __  | /  /__\  \  |    /   |      \           
                |  |  |   | |  | | |   __   |  |    \   |  |\   \          
                \     /   | |  | | |  |  |  |  | |\  \  |  | \   \       
                 \___/    |_|  |_| |__|  |__|  |_| \__\ |__|  \__/        
                                                                              
                      - O R C A' S   B I G   F R I E N D -                    
                                      &                                       
                       - I N T E G R A L  F E E D E R -                       
                                                                              
 v1 FN, 2020, v2 2021, v3 2022-2024                                           
------------------------------------------------------------------------------


----------------------
SHARK INTEGRAL PACKAGE
----------------------

Number of atoms                             ...      3
Number of basis functions                   ...    150
Number of shells                            ...     72
Maximum angular momentum                    ...      2
Integral batch strategy                     ... SHARK/LIBINT Hybrid
RI-J (if used) integral strategy            ... SPLIT-RIJ (Revised 2003 algorithm where possible)
Printlevel                                  ...      1
Contraction scheme used                     ... PARTIAL GENERAL contraction
Prescreening option                         ... SCHWARTZ
   Thresh                                   ... 1.000e-12
   Tcut                                     ... 1.000e-14
   Tpresel                                  ... 1.000e-14 
Coulomb Range Separation                    ... NOT USED
Exchange Range Separation                   ... NOT USED
Multipole approximations                    ... NOT USED
Finite Nucleus Model                        ... NOT USED
CABS basis                                  ... NOT available
Auxiliary Coulomb fitting basis             ... NOT available
Auxiliary J/K fitting basis                 ... NOT available
Auxiliary Correlation fitting basis         ... AVAILABLE
   # of basis functions in Aux-C            ...    276
   # of shells in Aux-C                     ...     84
   Maximum angular momentum in Aux-C        ...      3
Auxiliary 'external' fitting basis          ... NOT available

Checking pre-screening integrals            ... done (  0.0 sec) Dimension = 72
Save PGC pre-screening integrals            ... done (  0.0 sec) Dimension = 72
Calculate PGC overlap integrals             ... done (  0.0 sec) Dimension = 33
Calculating pre-screening integrals (ORCA)  ... done (  0.2 sec) Dimension = 33
Check shell pair data                       ... done (  0.0 sec)
Shell pair information
Shell pair cut-off parameter TPreSel        ...   1.0e-14
Total number of shell pairs                 ...      2628
Shell pairs after pre-screening             ...      1813
Total number of primitive shell pairs       ...      2628
Primitive shell pairs kept                  ...      1813
          la=0 lb=0:    460 shell pairs
          la=1 lb=0:    689 shell pairs
          la=1 lb=1:    271 shell pairs
          la=2 lb=0:    214 shell pairs
          la=2 lb=1:    158 shell pairs
          la=2 lb=2:     21 shell pairs

Calculating one electron integrals          ... done (  0.0 sec)
Calculating RI/C V-Matrix + Cholesky decomp.... done (  0.0 sec)
Calculating Nuclear repulsion               ... done (  0.0 sec) ENN=    148.831089834375 Eh

Diagonalization of the overlap matrix:
Smallest eigenvalue                        ... 2.127e-02
Time for diagonalization                   ...    0.001 sec
Threshold for overlap eigenvalues          ... 1.000e-07
Number of eigenvalues below threshold      ... 0
Time for construction of square roots      ...    0.001 sec
Total time needed                          ...    0.002 sec

-------------------
DFT GRID GENERATION
-------------------

General Integration Accuracy     IntAcc      ... 4.388
Radial Grid Type                 RadialGrid  ... OptM3 with GC (2021)
Angular Grid (max. ang.)         AngularGrid ... 4 (Lebedev-302)
Angular grid pruning method      GridPruning ... 4 (adaptive)
Weight generation scheme         WeightScheme... mBecke (2022)
Basis function cutoff            BFCut       ... 1.0000e-12
Integration weight cutoff        WCut        ... 1.0000e-14
Partially contracted basis set               ... off
Rotationally invariant grid construction     ... off
Angular grids for H and He will be reduced by one unit

Total number of grid points                  ...    22080
Total number of batches                      ...      346
Average number of points per batch           ...       63
Average number of grid points per atom       ...     7360

---------------------
SHARK GRID GENERATION
---------------------

General Integration Accuracy     IntAcc      ... 4.388
Radial Grid Type                 RadialGrid  ... OptM3 with GC (2021)
Angular Grid (max. ang.)         AngularGrid ... 4 (Lebedev-302)
Angular grid pruning method      GridPruning ... 4 (adaptive)
Weight generation scheme         WeightScheme... mBecke (2022)
Basis function cutoff            BFCut       ... 1.0000e-12
Integration weight cutoff        WCut        ... 1.0000e-14
Partially contracted basis set               ... off
Rotationally invariant grid construction     ... off
Angular grids for H and He will be reduced by one unit
Core-polarized basis detected: some atoms will have their core
                               angular grid increased.
Steep s-basis detected: some atoms will have their radial
                        grid points doubled.

Total number of grid points                  ...    58018
Total number of batches                      ...      907
Average number of points per batch           ...       63
Average number of grid points per atom       ...    19339
Initializing property integral containers    ... done (  0.0 sec)

SHARK setup successfully completed in   2.3 seconds

Maximum memory used throughout the entire STARTUP-calculation: 27.6 MB
-------------------------------------------------------------------------------
                                 ORCA GUESS
                   Start orbitals & Density for SCF / CASSCF
-------------------------------------------------------------------------------

------------
SCF SETTINGS
------------
Hamiltonian:
 Ab initio Hamiltonian  Method          .... Hartree-Fock(GTOs)


General Settings:
 Integral files         IntName         .... AR3LD_3.6_3.6_3.2
 Hartree-Fock type      HFTyp           .... RHF
 Total Charge           Charge          ....    0
 Multiplicity           Mult            ....    1
 Number of Electrons    NEL             ....   54
 Basis Dimension        Dim             ....   81
 Nuclear Repulsion      ENuc            ....    148.8310898344 Eh

Convergence Acceleration:
 AO-DIIS                CNVDIIS         .... on
   Start iteration      DIISMaxIt       ....    12
   Startup error        DIISStart       ....  0.200000
   # of expansion vecs  DIISMaxEq       ....     5
   Bias factor          DIISBfac        ....   1.050
   Max. coefficient     DIISMaxC        ....  10.000
 MO-DIIS                CNVKDIIS        .... off
 Trust-Rad. Augm. Hess. CNVTRAH         .... auto
   Auto Start mean grad. ratio tolernc. ....  1.125000
   Auto Start start iteration           ....    50
   Auto Start num. interpolation iter.  ....    10
   Max. Number of Micro iterations      ....    24
   Max. Number of Macro iterations      .... Maxiter - #DIIS iter
   Number of Davidson start vectors     ....     2
   Converg. threshold    (grad. norm)   ....   2.000e-06
   Grad. Scal. Fac. for Micro threshold ....   0.100
   Minimum threshold for Micro iter.    ....   1.000e-02
   NR start threshold (gradient norm)   ....   1.000e-04
   Initial trust radius                 ....   0.400
   Minimum AH scaling param. (alpha)    ....   1.000
   Maximum AH scaling param. (alpha)    .... 1000.000
   Quad. conv. algorithm                .... NR
   White noise on init. David. guess    .... on
   Maximum white noise                  ....   0.010
   Pseudo random numbers                .... off
   Inactive MOs                         .... canonical
   Orbital update algorithm             .... Taylor
   Preconditioner                       .... Diag
   Full preconditioner red. dimension   ....   250
 SOSCF                  CNVSOSCF        .... on
   Start iteration      SOSCFMaxIt      ....   150
   Startup grad/error   SOSCFStart      ....  0.003300
   Hessian update       SOSCFHessUp     .... L-BFGS
 Level Shifting         CNVShift        .... on
   Level shift para.    LevelShift      ....    0.2500
   Turn off err/grad.   ShiftErr        ....    0.0010
 Zerner damping         CNVZerner       .... off
 Static damping         CNVDamp         .... on
   Fraction old density DampFac         ....    0.7000
   Max. Damping (<1)    DampMax         ....    0.9800
   Min. Damping (>=0)   DampMin         ....    0.0000
   Turn off err/grad.   DampErr         ....    0.1000

SCF Procedure:
 Maximum # iterations   MaxIter         ....   125
 SCF integral mode      SCFMode         .... Direct
   Integral package                     .... SHARK and LIBINT hybrid scheme
 Reset frequency        DirectResetFreq ....    20
 Integral Threshold     Thresh          ....  1.000e-12 Eh
 Primitive CutOff       TCut            ....  1.000e-14 Eh

Convergence Tolerance:
 Convergence Check Mode ConvCheckMode   .... Total+1el-Energy
 Convergence forced     ConvForced      .... 1
 Energy Change          TolE            ....  1.000e-09 Eh
 1-El. energy change                    ....  1.000e-06 Eh
 Orbital Gradient       TolG            ....  2.000e-06
 Orbital Rotation angle TolX            ....  2.000e-06
 DIIS Error             TolErr          ....  1.000e-08

------------------------------
INITIAL GUESS: MODEL POTENTIAL
------------------------------
Loading Hartree-Fock densities                     ... done
Calculating cut-offs                               ... done
Initializing the effective Hamiltonian             ... done
Setting up the integral package (SHARK)            ... done
Starting the Coulomb interaction                   ... done (   0.0 sec)
Making the grid                                    ... done (   0.1 sec)
Mapping shells                                     ... done
Starting the XC term evaluation                    ... done (   0.0 sec)
Transforming the Hamiltonian                       ... done (   0.0 sec)
Diagonalizing the Hamiltonian                      ... done (   0.0 sec)
Back transforming the eigenvectors                 ... done (   0.0 sec)
Now organizing SCF variables                       ... done
                      ------------------
                      INITIAL GUESS DONE (   0.1 sec)
                      ------------------
             **** ENERGY FILE WAS UPDATED (AR3LD_3.6_3.6_3.2.en.tmp) ****
Finished Guess after   0.2 sec
Maximum memory used throughout the entire GUESS-calculation: 6.7 MB

-------------------------------------------------------------------------------------------
                                      ORCA LEAN-SCF
                              memory conserving SCF solver
-------------------------------------------------------------------------------------------

----------------------------------------D-I-I-S--------------------------------------------
Iteration    Energy (Eh)           Delta-E    RMSDP     MaxDP     DIISErr   Damp  Time(sec)
-------------------------------------------------------------------------------------------
               ***  Starting incremental Fock matrix formation  ***
    1    -1580.3799792927075032     0.00e+00  1.08e-03  1.77e-02  9.24e-02  0.700   1.0
    2    -1580.3852352297753896    -5.26e-03  8.41e-04  1.29e-02  6.62e-02  0.700   0.8
                               ***Turning on AO-DIIS***
    3    -1580.3890614643478330    -3.83e-03  6.71e-04  9.43e-03  4.71e-02  0.700   0.8
    4    -1580.3918157830032669    -2.75e-03  1.65e-03  2.21e-02  3.31e-02  0.000   0.7
                              *** Initializing SOSCF ***
---------------------------------------S-O-S-C-F--------------------------------------
Iteration    Energy (Eh)           Delta-E    RMSDP     MaxDP     MaxGrad    Time(sec)
--------------------------------------------------------------------------------------
    5    -1580.3985510605996296    -6.74e-03  8.74e-05  1.05e-03  1.07e-03     0.8
               *** Restarting incremental Fock matrix formation ***
    6    -1580.3985605262591889    -9.47e-06  4.22e-05  5.59e-04  3.29e-04     0.8
    7    -1580.3985621908893791    -1.66e-06  1.55e-05  1.81e-04  7.91e-05     0.7
    8    -1580.3985622975974366    -1.07e-07  8.59e-07  1.45e-05  8.01e-06     0.7
    9    -1580.3985622981367669    -5.39e-10  1.73e-07  2.51e-06  1.25e-06     0.6
                 **** Energy Check signals convergence ****

               *****************************************************
               *                     SUCCESS                       *
               *           SCF CONVERGED AFTER   9 CYCLES          *
               *****************************************************

             **** ENERGY FILE WAS UPDATED (AR3LD_3.6_3.6_3.2.en.tmp) ****

----------------
TOTAL SCF ENERGY
----------------

Total Energy       :      -1580.39856229813677 Eh          -43004.83120 eV

Components:
Nuclear Repulsion  :        148.83108983437501 Eh            4049.89985 eV
Electronic Energy  :      -1729.22965213251177 Eh          -47054.73105 eV
One Electron Energy:      -2482.29754842720422 Eh          -67546.75030 eV
Two Electron Energy:        753.06789629469245 Eh           20492.01925 eV

Virial components:
Potential Energy   :      -3160.84900665523264 Eh          -86011.07419 eV
Kinetic Energy     :       1580.45044435709588 Eh           43006.24299 eV
Virial Ratio       :          1.99996717261263

---------------
SCF CONVERGENCE
---------------

  Last Energy change         ...    5.3933e-10  Tolerance :   1.0000e-09
  Last MAX-Density change    ...    2.5099e-06  Tolerance :   1.0000e-08
  Last RMS-Density change    ...    1.7284e-07  Tolerance :   1.0000e-09
  Last DIIS Error            ...    1.0697e-03  Tolerance :   1.0000e-08
  Last Orbital Gradient      ...    1.2485e-06  Tolerance :   2.0000e-06
  Last Orbital Rotation      ...    1.7743e-06  Tolerance :   2.0000e-06


----------------
ORBITAL ENERGIES
----------------

  NO   OCC          E(Eh)            E(eV) 
   0   2.0000    -118.609792     -3227.5365 
   1   2.0000    -118.608513     -3227.5017 
   2   2.0000    -118.608512     -3227.5017 
   3   2.0000     -12.322006      -335.2988 
   4   2.0000     -12.320913      -335.2691 
   5   2.0000     -12.320901      -335.2688 
   6   2.0000      -9.570604      -260.4294 
   7   2.0000      -9.570602      -260.4293 
   8   2.0000      -9.570598      -260.4292 
   9   2.0000      -9.569503      -260.3994 
  10   2.0000      -9.569500      -260.3993 
  11   2.0000      -9.569494      -260.3992 
  12   2.0000      -9.569493      -260.3991 
  13   2.0000      -9.569489      -260.3990 
  14   2.0000      -9.569488      -260.3990 
  15   2.0000      -1.282344       -34.8944 
  16   2.0000      -1.277918       -34.7739 
  17   2.0000      -1.275105       -34.6974 
  18   2.0000      -0.614967       -16.7341 
  19   2.0000      -0.603239       -16.4150 
  20   2.0000      -0.597009       -16.2455 
  21   2.0000      -0.596060       -16.2196 
  22   2.0000      -0.590824       -16.0771 
  23   2.0000      -0.587895       -15.9974 
  24   2.0000      -0.583223       -15.8703 
  25   2.0000      -0.581746       -15.8301 
  26   2.0000      -0.571142       -15.5416 
  27   0.0000       0.117434         3.1955 
  28   0.0000       0.120833         3.2880 
  29   0.0000       0.132811         3.6140 
  30   0.0000       0.135586         3.6895 
  31   0.0000       0.169724         4.6184 
  32   0.0000       0.172989         4.7073 
  33   0.0000       0.173586         4.7235 
  34   0.0000       0.176120         4.7925 
  35   0.0000       0.205773         5.5994 
  36   0.0000       0.207004         5.6329 
  37   0.0000       0.293368         7.9830 
*Only the first 10 virtual orbitals were printed.

                    ********************************
                    * MULLIKEN POPULATION ANALYSIS *
                    ********************************

-------------------------
MULLIKEN FRAGMENT CHARGES
-------------------------
 Fragment   0 :   0.000110
 Fragment   1 :   0.000110
 Fragment   2 :  -0.000221
Sum of fragment charges:   -0.0000000

---------------------------------
MULLIKEN FRAGMENT OVERLAP CHARGES
---------------------------------
                  0          1          2    
      0      18.015985  -0.029048  -0.003142
      1      -0.029048  18.015985  -0.003142
      2      -0.003142  -0.003142  18.003363

-----------------------
MULLIKEN ATOMIC CHARGES
-----------------------
   0 Ar:    0.000110
   1 Ar:    0.000110
   2 Ar:   -0.000221
Sum of atomic charges:   -0.0000000

--------------------------------
MULLIKEN REDUCED ORBITAL CHARGES
--------------------------------
  0 Ars       :     5.997207  s :     5.997207
      pz      :     3.999873  p :    12.002113
      px      :     4.001858
      py      :     4.000382
      dz2     :     0.000056  d :     0.000570
      dxz     :     0.000099
      dyz     :     0.000024
      dx2y2   :     0.000203
      dxy     :     0.000188

  1 Ars       :     5.997207  s :     5.997207
      pz      :     3.999873  p :    12.002113
      px      :     4.001858
      py      :     4.000382
      dz2     :     0.000056  d :     0.000570
      dxz     :     0.000099
      dyz     :     0.000024
      dx2y2   :     0.000203
      dxy     :     0.000188

  2 Ars       :     5.998641  s :     5.998641
      pz      :     3.999952  p :    12.001088
      px      :     4.000347
      py      :     4.000789
      dz2     :     0.000082  d :     0.000491
      dxz     :     0.000012
      dyz     :     0.000046
      dx2y2   :     0.000121
      dxy     :     0.000231



                     *******************************
                     * LOEWDIN POPULATION ANALYSIS *
                     *******************************

------------------------
LOEWDIN FRAGMENT CHARGES
------------------------
 Fragment   0 :  -0.000596
 Fragment   1 :  -0.000596
 Fragment   2 :   0.001192

----------------------------
LOEWDIN FRAGMENT BOND ORDERS
----------------------------
                  0          1          2    
      0      18.000596   0.131909   0.061779
      1       0.131909  18.000596   0.061779
      2       0.061779   0.061779  17.998808

----------------------
LOEWDIN ATOMIC CHARGES
----------------------
   0 Ar:   -0.000596
   1 Ar:   -0.000596
   2 Ar:    0.001192

-------------------------------
LOEWDIN REDUCED ORBITAL CHARGES
-------------------------------
  0 Ars       :     5.981227  s :     5.981227
      pz      :     3.999804  p :    12.013654
      px      :     4.010253
      py      :     4.003597
      dz2     :     0.001353  d :     0.005715
      dxz     :     0.000205
      dyz     :     0.000015
      dx2y2   :     0.003602
      dxy     :     0.000542

  1 Ars       :     5.981227  s :     5.981227
      pz      :     3.999804  p :    12.013654
      px      :     4.010253
      py      :     4.003597
      dz2     :     0.001353  d :     0.005715
      dxz     :     0.000205
      dyz     :     0.000015
      dx2y2   :     0.003602
      dxy     :     0.000542

  2 Ars       :     5.987734  s :     5.987734
      pz      :     3.999920  p :    12.009366
      px      :     4.001452
      py      :     4.007994
      dz2     :     0.000406  d :     0.001708
      dxz     :     0.000008
      dyz     :     0.000026
      dx2y2   :     0.000417
      dxy     :     0.000851



                      *****************************
                      * MAYER POPULATION ANALYSIS *
                      *****************************

  NA   - Mulliken gross atomic population
  ZA   - Total nuclear charge
  QA   - Mulliken gross atomic charge
  VA   - Mayer's total valence
  BVA  - Mayer's bonded valence
  FA   - Mayer's free valence

  ATOM       NA         ZA         QA         VA         BVA        FA
  0 Ar    17.9999    18.0000     0.0001    -0.0032    -0.0032    -0.0000
  1 Ar    17.9999    18.0000     0.0001    -0.0032    -0.0032    -0.0000
  2 Ar    18.0002    18.0000    -0.0002     0.0044     0.0044     0.0000

  Mayer bond orders larger than 0.100000
  => no bond orders to print

-------
TIMINGS
-------

Total SCF time: 0 days 0 hours 0 min 7 sec 

Total time                  ....       7.025 sec
Sum of individual times     ....       7.011 sec  ( 99.8%)

SCF preparation             ....       0.063 sec  (  0.9%)
Fock matrix formation       ....       6.909 sec  ( 98.3%)
  Startup                   ....       0.001 sec  (  0.0% of F)
  Coulomb+Exchange Fock     ....       6.902 sec  ( 99.9% of F)
Diagonalization             ....       0.000 sec  (  0.0%)
Density matrix formation    ....       0.005 sec  (  0.1%)
Total Energy calculation    ....       0.001 sec  (  0.0%)
Population analysis         ....       0.004 sec  (  0.1%)
Orbital Transformation      ....       0.004 sec  (  0.1%)
Orbital Orthonormalization  ....       0.000 sec  (  0.0%)
DIIS solution               ....       0.016 sec  (  0.2%)
SOSCF solution              ....       0.008 sec  (  0.1%)
Finished LeanSCF after   7.0 sec

Maximum memory used throughout the entire LEANSCF-calculation: 8.7 MB

------------------------------------------------------------------------------
                         ORCA PROPERTY INTEGRAL CALCULATIONS
------------------------------------------------------------------------------

GBWName                                   ... AR3LD_3.6_3.6_3.2.gbw
Number of atoms                           ...      3
Number of basis functions                 ...    150
Max core memory                           ...   1024 MB

Dipole integrals                          ... YES
Quadrupole integrals                      ...  NO
Linear momentum integrals                 ... YES
Angular momentum integrals                ... YES
Higher moments length integrals           ...  NO
Higher moments velocity integrals         ...  NO
Kinetic energy integrals                  ...  NO
GIAO right hand sides                     ...  NO
GIAO dipole derivative integrals          ...  NO
SOC integrals                             ...  NO
EPR diamagnetic integrals (GIAO)          ...  NO
EPR gauge integrals                       ...  NO
Field gradient integrals                  ...  NO (   0 nuclei)
Spin-dipole/Fermi contact integrals       ...  NO (   0 nuclei)
Contact density integrals                 ...  NO (   0 nuclei)
Nucleus-orbit integrals                   ...  NO (   0 nuclei)
Geometric perturbations                   ...  NO (   3 nuclei)

Choice of electric origin   ... Center of mass
Position of electric origin ... (  3.0236,  2.0314,  0.0000) 
Choice of magnetic origin   ... GIAO
Position of magnetic origin ... (  0.0000,  0.0000,  0.0000) 

Calculating integrals                     ... Electric Dipole (Length)     done (  0.0 sec)
Calculating integrals                     ... Linear Momentum              done (  0.0 sec)
Calculating integrals                     ... Angular Momentum  (ElOri)    done (  0.0 sec)

Property integrals calculated in   0.0 sec

Maximum memory used throughout the entire PROPINT-calculation: 6.9 MB


--------------------------------------------------------------------------------
                             ORCA-MATRIX DRIVEN CI
--------------------------------------------------------------------------------


Wavefunction type
-----------------
Correlation treatment                      ...      CCSD     
Single excitations                         ... ON
Orbital optimization                       ... OFF
Calculation of Z vector                    ... OFF
Calculation of Brueckner orbitals          ... OFF
Perturbative triple excitations            ... OFF
Calculation of F12 correction              ... OFF
Frozen core treatment                      ... chemical core (30 el)
Reference Wavefunction                     ... RHF
  Internal Orbitals:    15 ...   26 ( 12 MO's/ 24 electrons)
  Virtual  Orbitals:    27 ...   80 ( 54 MO's              )
Number of AO's                             ...     81
Number of electrons                        ...     54
Number of correlated electrons             ...     24

Algorithmic settings
--------------------
Integral transformation                    ... All integrals via the RI transformation
K(C) Formation                             ... RI-DLPNO
   PNO-Integral Storage                    ... ON DISK
   PNO occupation number cut-off           ... 3.330e-07
   Singles PNO occupation number cut-off   ... 9.990e-09
   PNO Mulliken prescreening cut-off       ... 1.000e-03
   Domain cut-off (Mulliken population)    ... 1.000e-03
   PNO Normalization                       ...    1
Maximum number of iterations               ...        50
Convergence tolerance (max. residuum)      ... 1.000e-06
Level shift for amplitude update           ... 2.000e-01
Maximum number of DIIS vectors             ...         7
DIIS turned on at iteration                ...         0
Damping before turning on DIIS             ...     0.500
Damping after turning on DIIS              ...     0.000
Pair specific amplitude update             ... OFF
Natural orbital iterations                 ... OFF
Perturbative natural orbital generation    ... OFF
Printlevel                                 ... 2

Singles Fock matrix elements calculated using PNOs.

Memory handling:
----------------
Maximum memory for working arrays          ...    512 MB
Data storage in matrix containers          ... UNCOMPRESSED
Data type for integral storage             ... DOUBLE
In-Core Storage of quantities:
   Amplitudes+Sigma Vector      ... NO
   J+K operators                ... NO
   DIIS vectors                 ... NO
   3-external integrals         ... NO
   4-external integrals         ... NO

Localization treatment:
-----------------------
Localization option                        ...    2
Localization threshhold                    ... -1.0e+00
Using relative localization threshhold     ... 1.0e-08
Neglect threshold for strong pairs         ... 1.000e-05 Eh
Prescreening threshold for very weak pairs ... 1.000e-07 Eh
Using randomized seed for localization     ... on

Initializing the integral package          ... done
Localizing the valence orbitals
Localizing the valence orbitals
------------------------------------------------------------------------------
                           ORCA ORBITAL LOCALIZATION
------------------------------------------------------------------------------

Input orbitals are from                  ... AR3LD_3.6_3.6_3.2.proc0.gbw
Output orbitals are to                   ... AR3LD_3.6_3.6_3.2.proc0.loc
Max. number of iterations                ... 128
Localizations seeded randomly            ... on
Convergence tolerance                    ... 2.000e-07
Using relative localization threshhold   ... 1.000e-08
Threshold for strong local MOs           ... 9.500e-01
Threshold for bond MOs                   ... 8.500e-01
Operator                                 ... 0
Orbital range for localization           ... 15 to 26
Localization criterion                   ... FOSTER-BOYS
Doing the dipole integrals     ... o.k.
Entering Jacobi type localization:
Using Cholesky decomposition as initial guess.
Initial value of the localization sum :   172.188898
ITERATION   0 : L=  178.9812371241 DL=  6.79e+00 (MAX-T)=  45.000 
ITERATION   1 : L=  179.0029102646 DL=  2.17e-02 (MAX-T)=   4.475 
ITERATION   2 : L=  179.0031954666 DL=  2.85e-04 (MAX-T)=   0.442 
ITERATION   3 : L=  179.0033788228 DL=  1.83e-04 (MAX-T)=   0.252 
ITERATION   4 : L=  179.0035622599 DL=  1.83e-04 (MAX-T)=   0.237 
ITERATION   5 : L=  179.0037010070 DL=  1.39e-04 (MAX-T)=   0.234 
ITERATION   6 : L=  179.0038746318 DL=  1.74e-04 (MAX-T)=   0.221 
ITERATION   7 : L=  179.0040345358 DL=  1.60e-04 (MAX-T)=   0.239 
ITERATION   8 : L=  179.0041846229 DL=  1.50e-04 (MAX-T)=   0.250 
ITERATION   9 : L=  179.0043210619 DL=  1.36e-04 (MAX-T)=   0.221 
ITERATION  10 : L=  179.0044396896 DL=  1.19e-04 (MAX-T)=   0.202 
ITERATION  11 : L=  179.0045318845 DL=  9.22e-05 (MAX-T)=   0.209 
ITERATION  12 : L=  179.0046842438 DL=  1.52e-04 (MAX-T)=   0.199 
ITERATION  13 : L=  179.0048158678 DL=  1.32e-04 (MAX-T)=   0.205 
ITERATION  14 : L=  179.0049272367 DL=  1.11e-04 (MAX-T)=   0.181 
ITERATION  15 : L=  179.0050487395 DL=  1.22e-04 (MAX-T)=   0.199 
ITERATION  16 : L=  179.0051525145 DL=  1.04e-04 (MAX-T)=   0.180 
ITERATION  17 : L=  179.0052421583 DL=  8.96e-05 (MAX-T)=   0.162 
ITERATION  18 : L=  179.0053463694 DL=  1.04e-04 (MAX-T)=   0.193 
ITERATION  19 : L=  179.0054489087 DL=  1.03e-04 (MAX-T)=   0.154 
ITERATION  20 : L=  179.0055336890 DL=  8.48e-05 (MAX-T)=   0.179 
ITERATION  21 : L=  179.0056108281 DL=  7.71e-05 (MAX-T)=   0.133 
ITERATION  22 : L=  179.0056878570 DL=  7.70e-05 (MAX-T)=   0.128 
ITERATION  23 : L=  179.0057478809 DL=  6.00e-05 (MAX-T)=   0.149 
ITERATION  24 : L=  179.0058221117 DL=  7.42e-05 (MAX-T)=   0.160 
ITERATION  25 : L=  179.0058813671 DL=  5.93e-05 (MAX-T)=   0.133 
ITERATION  26 : L=  179.0059519273 DL=  7.06e-05 (MAX-T)=   0.124 
ITERATION  27 : L=  179.0060111391 DL=  5.92e-05 (MAX-T)=   0.132 
ITERATION  28 : L=  179.0060633481 DL=  5.22e-05 (MAX-T)=   0.132 
ITERATION  29 : L=  179.0061095703 DL=  4.62e-05 (MAX-T)=   0.137 
ITERATION  30 : L=  179.0061679449 DL=  5.84e-05 (MAX-T)=   0.130 
ITERATION  31 : L=  179.0062258373 DL=  5.79e-05 (MAX-T)=   0.130 
ITERATION  32 : L=  179.0062767938 DL=  5.10e-05 (MAX-T)=   0.135 
ITERATION  33 : L=  179.0063250291 DL=  4.82e-05 (MAX-T)=   0.125 
ITERATION  34 : L=  179.0063753698 DL=  5.03e-05 (MAX-T)=   0.131 
ITERATION  35 : L=  179.0064198993 DL=  4.45e-05 (MAX-T)=   0.143 
ITERATION  36 : L=  179.0064659468 DL=  4.60e-05 (MAX-T)=   0.111 
ITERATION  37 : L=  179.0065168372 DL=  5.09e-05 (MAX-T)=   0.119 
ITERATION  38 : L=  179.0065576900 DL=  4.09e-05 (MAX-T)=   0.135 
ITERATION  39 : L=  179.0065922601 DL=  3.46e-05 (MAX-T)=   0.111 
ITERATION  40 : L=  179.0066252662 DL=  3.30e-05 (MAX-T)=   0.133 
ITERATION  41 : L=  179.0066621322 DL=  3.69e-05 (MAX-T)=   0.115 
ITERATION  42 : L=  179.0066911327 DL=  2.90e-05 (MAX-T)=   0.139 
ITERATION  43 : L=  179.0067304523 DL=  3.93e-05 (MAX-T)=   0.130 
ITERATION  44 : L=  179.0067639940 DL=  3.35e-05 (MAX-T)=   0.127 
ITERATION  45 : L=  179.0068005102 DL=  3.65e-05 (MAX-T)=   0.124 
ITERATION  46 : L=  179.0068307801 DL=  3.03e-05 (MAX-T)=   0.103 
ITERATION  47 : L=  179.0068634110 DL=  3.26e-05 (MAX-T)=   0.118 
ITERATION  48 : L=  179.0069003681 DL=  3.70e-05 (MAX-T)=   0.113 
ITERATION  49 : L=  179.0069264819 DL=  2.61e-05 (MAX-T)=   0.122 
ITERATION  50 : L=  179.0069578497 DL=  3.14e-05 (MAX-T)=   0.107 
ITERATION  51 : L=  179.0069804511 DL=  2.26e-05 (MAX-T)=   0.128 
ITERATION  52 : L=  179.0070061798 DL=  2.57e-05 (MAX-T)=   0.130 
ITERATION  53 : L=  179.0070355763 DL=  2.94e-05 (MAX-T)=   0.132 
ITERATION  54 : L=  179.0070655699 DL=  3.00e-05 (MAX-T)=   0.123 
ITERATION  55 : L=  179.0070904525 DL=  2.49e-05 (MAX-T)=   0.118 
ITERATION  56 : L=  179.0071157935 DL=  2.53e-05 (MAX-T)=   0.108 
ITERATION  57 : L=  179.0071358976 DL=  2.01e-05 (MAX-T)=   0.124 
ITERATION  58 : L=  179.0071646450 DL=  2.87e-05 (MAX-T)=   0.109 
ITERATION  59 : L=  179.0071895095 DL=  2.49e-05 (MAX-T)=   0.122 
ITERATION  60 : L=  179.0072157533 DL=  2.62e-05 (MAX-T)=   0.108 
ITERATION  61 : L=  179.0072355910 DL=  1.98e-05 (MAX-T)=   0.103 
ITERATION  62 : L=  179.0072559903 DL=  2.04e-05 (MAX-T)=   0.107 
ITERATION  63 : L=  179.0072781929 DL=  2.22e-05 (MAX-T)=   0.114 
ITERATION  64 : L=  179.0072899387 DL=  1.17e-05 (MAX-T)=   0.115 
ITERATION  65 : L=  179.0073171022 DL=  2.72e-05 (MAX-T)=   0.106 
ITERATION  66 : L=  179.0073372033 DL=  2.01e-05 (MAX-T)=   0.095 
ITERATION  67 : L=  179.0073615202 DL=  2.43e-05 (MAX-T)=   0.120 
ITERATION  68 : L=  179.0073813525 DL=  1.98e-05 (MAX-T)=   0.098 
ITERATION  69 : L=  179.0073985129 DL=  1.72e-05 (MAX-T)=   0.120 
ITERATION  70 : L=  179.0074101516 DL=  1.16e-05 (MAX-T)=   0.109 
ITERATION  71 : L=  179.0074296846 DL=  1.95e-05 (MAX-T)=   0.113 
ITERATION  72 : L=  179.0074502361 DL=  2.06e-05 (MAX-T)=   0.091 
ITERATION  73 : L=  179.0074670069 DL=  1.68e-05 (MAX-T)=   0.095 
ITERATION  74 : L=  179.0074859867 DL=  1.90e-05 (MAX-T)=   0.110 
ITERATION  75 : L=  179.0074994498 DL=  1.35e-05 (MAX-T)=   0.106 
ITERATION  76 : L=  179.0075195726 DL=  2.01e-05 (MAX-T)=   0.109 
ITERATION  77 : L=  179.0075351546 DL=  1.56e-05 (MAX-T)=   0.098 
ITERATION  78 : L=  179.0075512580 DL=  1.61e-05 (MAX-T)=   0.103 
ITERATION  79 : L=  179.0075712281 DL=  2.00e-05 (MAX-T)=   0.100 
ITERATION  80 : L=  179.0075868984 DL=  1.57e-05 (MAX-T)=   0.083 
ITERATION  81 : L=  179.0076024735 DL=  1.56e-05 (MAX-T)=   0.090 
ITERATION  82 : L=  179.0076211805 DL=  1.87e-05 (MAX-T)=   0.099 
ITERATION  83 : L=  179.0076344243 DL=  1.32e-05 (MAX-T)=   0.096 
ITERATION  84 : L=  179.0076443676 DL=  9.94e-06 (MAX-T)=   0.102 
ITERATION  85 : L=  179.0076579866 DL=  1.36e-05 (MAX-T)=   0.091 
ITERATION  86 : L=  179.0076731265 DL=  1.51e-05 (MAX-T)=   0.087 
ITERATION  87 : L=  179.0076885985 DL=  1.55e-05 (MAX-T)=   0.089 
ITERATION  88 : L=  179.0077006098 DL=  1.20e-05 (MAX-T)=   0.098 
ITERATION  89 : L=  179.0077154885 DL=  1.49e-05 (MAX-T)=   0.081 
ITERATION  90 : L=  179.0077292317 DL=  1.37e-05 (MAX-T)=   0.102 
ITERATION  91 : L=  179.0077425440 DL=  1.33e-05 (MAX-T)=   0.080 
ITERATION  92 : L=  179.0077563343 DL=  1.38e-05 (MAX-T)=   0.088 
ITERATION  93 : L=  179.0077672874 DL=  1.10e-05 (MAX-T)=   0.076 
ITERATION  94 : L=  179.0077781978 DL=  1.09e-05 (MAX-T)=   0.081 
ITERATION  95 : L=  179.0077888026 DL=  1.06e-05 (MAX-T)=   0.075 
ITERATION  96 : L=  179.0077988315 DL=  1.00e-05 (MAX-T)=   0.090 
ITERATION  97 : L=  179.0078101445 DL=  1.13e-05 (MAX-T)=   0.080 
ITERATION  98 : L=  179.0078207536 DL=  1.06e-05 (MAX-T)=   0.078 
ITERATION  99 : L=  179.0078328986 DL=  1.21e-05 (MAX-T)=   0.091 
ITERATION 100 : L=  179.0078436673 DL=  1.08e-05 (MAX-T)=   0.090 
ITERATION 101 : L=  179.0078507934 DL=  7.13e-06 (MAX-T)=   0.063 
ITERATION 102 : L=  179.0078599819 DL=  9.19e-06 (MAX-T)=   0.079 
ITERATION 103 : L=  179.0078713825 DL=  1.14e-05 (MAX-T)=   0.077 
ITERATION 104 : L=  179.0078808795 DL=  9.50e-06 (MAX-T)=   0.076 
ITERATION 105 : L=  179.0078896164 DL=  8.74e-06 (MAX-T)=   0.068 
ITERATION 106 : L=  179.0079000102 DL=  1.04e-05 (MAX-T)=   0.086 
ITERATION 107 : L=  179.0079068425 DL=  6.83e-06 (MAX-T)=   0.066 
ITERATION 108 : L=  179.0079160202 DL=  9.18e-06 (MAX-T)=   0.077 
ITERATION 109 : L=  179.0079245436 DL=  8.52e-06 (MAX-T)=   0.071 
ITERATION 110 : L=  179.0079340949 DL=  9.55e-06 (MAX-T)=   0.066 
ITERATION 111 : L=  179.0079398823 DL=  5.79e-06 (MAX-T)=   0.071 
ITERATION 112 : L=  179.0079480208 DL=  8.14e-06 (MAX-T)=   0.070 
ITERATION 113 : L=  179.0079554069 DL=  7.39e-06 (MAX-T)=   0.066 
ITERATION 114 : L=  179.0079635156 DL=  8.11e-06 (MAX-T)=   0.067 
ITERATION 115 : L=  179.0079713794 DL=  7.86e-06 (MAX-T)=   0.066 
ITERATION 116 : L=  179.0079794437 DL=  8.06e-06 (MAX-T)=   0.072 
ITERATION 117 : L=  179.0079859820 DL=  6.54e-06 (MAX-T)=   0.061 
ITERATION 118 : L=  179.0079926006 DL=  6.62e-06 (MAX-T)=   0.080 
ITERATION 119 : L=  179.0080004326 DL=  7.83e-06 (MAX-T)=   0.065 
ITERATION 120 : L=  179.0080079288 DL=  7.50e-06 (MAX-T)=   0.071 
ITERATION 121 : L=  179.0080119598 DL=  4.03e-06 (MAX-T)=   0.067 
ITERATION 122 : L=  179.0080194082 DL=  7.45e-06 (MAX-T)=   0.072 
ITERATION 123 : L=  179.0080233423 DL=  3.93e-06 (MAX-T)=   0.062 
ITERATION 124 : L=  179.0080314861 DL=  8.14e-06 (MAX-T)=   0.072 
ITERATION 125 : L=  179.0080389916 DL=  7.51e-06 (MAX-T)=   0.059 
ITERATION 126 : L=  179.0080448946 DL=  5.90e-06 (MAX-T)=   0.065 
ITERATION 127 : L=  179.0080504319 DL=  5.54e-06 (MAX-T)=   0.057 
MAXIMUM NO OF ITERATIONS EXCEEDED - LOCALIZATION NOT CONVERGED


--------------------------------------------------------------------------------
                    LOCALIZED MOLECULAR ORBITAL COMPOSITIONS
--------------------------------------------------------------------------------

The Mulliken populations for each LMO on each atom are computed
The LMO`s will be ordered according to atom index and type
  (A) Strongly localized MO`s have populations of >=0.950 on one atom
  (B) Two center bond orbitals have populations of >=0.850 on two atoms
  (C) Other MO`s are considered to be `delocalized`

FOUND  -  12 strongly local MO`s
       -   0 two center bond MO`s
       -   0 significantly delocalized MO`s

Rather strongly localized orbitals:
MO  26:   2Ar -   0.999807
MO  25:   2Ar -   0.999970
MO  24:   2Ar -   0.999893
MO  23:   2Ar -   1.000330
MO  22:   1Ar -   1.000366
MO  21:   1Ar -   1.000349
MO  20:   1Ar -   1.000238
MO  19:   1Ar -   1.000833
MO  18:   0Ar -   1.000367
MO  17:   0Ar -   1.000350
MO  16:   0Ar -   1.000237
MO  15:   0Ar -   1.000833
Localized MO's were stored in: AR3LD_3.6_3.6_3.2.proc0.loc

Localizing the core orbitals
Localization sum:   215.672610914 
------------------------------------------------------------------------------
                           ORCA ORBITAL LOCALIZATION
------------------------------------------------------------------------------

Input orbitals are from                  ... AR3LD_3.6_3.6_3.2.proc0.loc
Output orbitals are to                   ... AR3LD_3.6_3.6_3.2.proc0.loc
Max. number of iterations                ... 128
Localizations seeded randomly            ... on
Convergence tolerance                    ... 2.000e-07
Using relative localization threshhold   ... 1.000e-08
Threshold for strong local MOs           ... 9.500e-01
Threshold for bond MOs                   ... 8.500e-01
Operator                                 ... 0
Orbital range for localization           ... 0 to 14
Localization criterion                   ... FOSTER-BOYS
Doing the dipole integrals     ... o.k.
Entering Jacobi type localization:
Using Cholesky decomposition as initial guess.
Initial value of the localization sum :   215.216144
ITERATION   0 : L=  215.6606531744 DL=  4.45e-01 (MAX-T)=  45.000 
ITERATION   1 : L=  215.6725984998 DL=  1.19e-02 (MAX-T)=  15.042 
ITERATION   2 : L=  215.6726107048 DL=  1.22e-05 (MAX-T)=   0.354 
ITERATION   3 : L=  215.6726109142 DL=  2.09e-07 (MAX-T)=   0.063 
LOCALIZATION SUM CONVERGED


--------------------------------------------------------------------------------
                    LOCALIZED MOLECULAR ORBITAL COMPOSITIONS
--------------------------------------------------------------------------------

The Mulliken populations for each LMO on each atom are computed
The LMO`s will be ordered according to atom index and type
  (A) Strongly localized MO`s have populations of >=0.950 on one atom
  (B) Two center bond orbitals have populations of >=0.850 on two atoms
  (C) Other MO`s are considered to be `delocalized`

FOUND  -  15 strongly local MO`s
       -   0 two center bond MO`s
       -   0 significantly delocalized MO`s

Rather strongly localized orbitals:
MO  14:   2Ar -   1.000022
MO  13:   2Ar -   1.000000
MO  12:   2Ar -   1.000016
MO  11:   2Ar -   1.000011
MO  10:   2Ar -   1.000016
MO   9:   1Ar -   1.000018
MO   8:   1Ar -   1.000000
MO   7:   1Ar -   1.000020
MO   6:   1Ar -   1.000036
MO   5:   1Ar -   1.000029
MO   4:   0Ar -   1.000017
MO   3:   0Ar -   1.000000
MO   2:   0Ar -   1.000033
MO   1:   0Ar -   1.000021
MO   0:   0Ar -   1.000032
Localized MO's were stored in: AR3LD_3.6_3.6_3.2.proc0.loc

Warning: reference  - re-canonicalizations have been set to INT 1 VIRT 1
Warning: internal orbitals are localized - no re-canonicalization of internal orbitals
Warning: UsePNO is turned on - no re-canonicalization of internal and virtual orbitals
Fock densities were made 
Making Fock matrix and reference energy:

--------------------------
CLOSED-SHELL FOCK OPERATOR
--------------------------

Time needed for Fock operator              ...            1.329 sec
Reference energy                           ...  -1580.398562298

--------------
DLPNO SETTINGS (2015 fully linear scaling implementation)
--------------

TCutMKN:           1.000e-03
TCutPAO:           1.000e-03
TCutPNO:           3.330e-07
TCutPNOSingles:    9.990e-09
TCutEN:            9.700e-01
TCutPAOExt:        1.000e-01
TCutPairs:         1.000e-05
TCutPre:           1.000e-07
TCutOSV:           1.000e-06
TCutDOij:          1.000e-05
TCutDO:            1.000e-02
TCutC:             1.000e-04
TCutCPAO:          1.000e-03
TCutCMO:           1.000e-03
TScaleDOMP2PreScr: 2.000e+00
TScaleMKNMP2PreScr:1.000e+01
TScalePNOMP2PreScr:1.000e+00
PAO overlap thresh 1.000e-08
Using PNOs for Singles Fock computation
Use new domains
Use fully linear algorithm

--------------------------
Mulliken population of the LMOs            ... ok
Performing proximity check                 ... No problems found
Calculating differential overlap integrals ... ok

------------------------
PRESCREENING OF HF PAIRS
------------------------

   .... Finished loop over pairs

                  ============================================
                    30 of   78 PAIRS WERE SKIPPED as HF PAIRS
                  ============================================

Total time spent in skipping HF pairs                 ...     0.000 sec
--------------------------
ELECTRON PAIR PRESCREENING
--------------------------

Dipole-based pair screening          .... used

   TCutDOij = 1.000000e-05
   TCutPre  = 1.000000e-07
   .... Finished loop over pairs
Total time spent in the prescreening                  ...     0.000 sec
sum of pair energies estimated for screened out pairs ...       0.000000000000 Eh
Thresholds for map construction and integral transformation for crude MP2:
   TCutMKN                    ...     1.0e-02
   TCutDO                     ...     2.0e-02
   TCutPairs                  ...     1.0e-05
   TCutPNO_CrudeMP2           ...     3.3e-07
   TCutPNOSingles_CrudeMP2    ...     1.0e-08
--------------------------------
LOCAL RI TRANSFORMATION (IAVPAO)
--------------------------------

Orbital window:      15 to 26
Number of PAOs:      81
Basis functions:     81 (33 shells)
Aux. functions:     276 (84 shells)
Use SHARK:           on
Have SHARK:         yes

Processing maps (0.0 sec)
Average map sizes:
   Aux shells -> MOs              12.0
   Aux shells -> PAOs             81.0
   MOs        -> AO shells        33.0
   PAOs       -> AO shells        33.0

Calculating integrals (0.1 sec, 2.050 MB)
Sorting integrals (0.0 sec, 2.047 MB)
Total time for the integral transformation: 0.1 sec
--------------------------------
INITIAL GUESS AND PNO GENERATION
--------------------------------

Populations of internal orbitals onto Fragments:
  15:      1.001    0.001    0.000  assigned to fragment   1
  16:      1.000    0.000    0.000  assigned to fragment   1
  17:      1.000    0.000    0.000  assigned to fragment   1
  18:      1.000    0.000    0.000  assigned to fragment   1
  19:      0.001    1.001    0.000  assigned to fragment   2
  20:      0.000    1.000    0.000  assigned to fragment   2
  21:      0.000    1.000    0.000  assigned to fragment   2
  22:      0.000    1.000    0.000  assigned to fragment   2
  23:      0.000    0.000    1.000  assigned to fragment   3
  24:      0.000    0.000    1.000  assigned to fragment   3
  25:      0.000    0.000    1.000  assigned to fragment   3
  26:      0.000    0.000    1.000  assigned to fragment   3

Summary assignment:
   4 orbitals assigned to fragment   1
   4 orbitals assigned to fragment   2
   4 orbitals assigned to fragment   3

PNO truncation parameters                   .... 
    PAOOverlapThresh   =        1.000e-08

Pair selection                          .... 
  modified with fragment specific keywords
  Pairs will be selected according to these
  intra(inter)fragment cutoffs
  1 <-> 1
    Intrafragment pairs 1 <-> 1 neglected for CCSD
  1 <-> 2
    TCutPairs          =        1.000e-05
    TCutPNO            =        3.330e-07
    TCutMKN            =        1.000e-02
    TCutDO             =        2.000e-02
    TCutPNOSingles     =        9.990e-09
    TCutMP2Pairs       =        1.000e-06
  1 <-> 3
    TCutPairs          =        1.000e-05
    TCutPNO            =        3.330e-07
    TCutMKN            =        1.000e-02
    TCutDO             =        2.000e-02
    TCutPNOSingles     =        9.990e-09
    TCutMP2Pairs       =        1.000e-06
  2 <-> 2
    Intrafragment pairs 2 <-> 2 neglected for CCSD
  2 <-> 3
    TCutPairs          =        1.000e-05
    TCutPNO            =        3.330e-07
    TCutMKN            =        1.000e-02
    TCutDO             =        2.000e-02
    TCutPNOSingles     =        9.990e-09
    TCutMP2Pairs       =        1.000e-06
  3 <-> 3
    Intrafragment pairs 3 <-> 3 neglected for CCSD

Type of local MP2 treatment                 .... semi-local MP2
Strategy for PNO selection                  .... occupation number selection
Pair density normalization                  .... MP2 norm
Spin component scaling                      .... not used

   .... Finished loop over pairs
Making pair pair interaction lists          ... done

                       ===========================
                         48 OF   60 PAIRS ARE KEPT CCSD PAIRS
                          0 OF   60 PAIRS ARE KEPT MP2 PAIRS
                         12 OF   60 PAIRS ARE SKIPPED
                       ===========================

Total time spent in the initial guess                 ...     0.187 sec
SL-MP2 correlation energy (all non-screened pairs)    ...      -0.003262522417 Eh

Initial PNO correlation energy                        ...      -0.003163203541 Eh
sum of pair energies prescreened and skipped MP2 pairs...       0.000000000000 Eh
sum of pair energies of crude MP2 skipped pairs only  ...       0.000000000000 Eh
sum of MP2 pair energies for pairs that were not kept ...       0.000000000000 Eh
sum of PNO error estimates for the kept pairs         ...      -0.000099318876 Eh
                                                          --------------------
sum of all corrections                                         -0.000099318876
Initial total correlation energy                               -0.003262522417
Thresholds for map construction and integral transformation for fine MP2 and CCSD(T) calculation:
   TCutMKN   ...     1.0e-03
   TCutDO    ...     1.0e-02
   TCutPairs ...     1.0e-05
   TCutCMO   ...     1.0e-03
   TCutCPAO  ...     1.0e-03

--------------------------------
LOCAL RI TRANSFORMATION (IAVPAO)
--------------------------------

Orbital window:      15 to 26
Number of PAOs:      81
Basis functions:     81 (33 shells)
Aux. functions:     276 (84 shells)
Use SHARK:           on
Have SHARK:         yes

Processing maps (0.0 sec)
Average map sizes:
   Aux shells -> MOs              12.0
   Aux shells -> PAOs             81.0
   MOs        -> AO shells        33.0
   PAOs       -> AO shells        33.0

Calculating integrals (0.1 sec, 2.050 MB)
Sorting integrals (0.0 sec, 2.047 MB)
Total time for the integral transformation: 0.2 sec
--------------------------------
INITIAL GUESS AND PNO GENERATION
--------------------------------

Populations of internal orbitals onto Fragments:
  15:      1.001    0.001    0.000  assigned to fragment   1
  16:      1.000    0.000    0.000  assigned to fragment   1
  17:      1.000    0.000    0.000  assigned to fragment   1
  18:      1.000    0.000    0.000  assigned to fragment   1
  19:      0.001    1.001    0.000  assigned to fragment   2
  20:      0.000    1.000    0.000  assigned to fragment   2
  21:      0.000    1.000    0.000  assigned to fragment   2
  22:      0.000    1.000    0.000  assigned to fragment   2
  23:      0.000    0.000    1.000  assigned to fragment   3
  24:      0.000    0.000    1.000  assigned to fragment   3
  25:      0.000    0.000    1.000  assigned to fragment   3
  26:      0.000    0.000    1.000  assigned to fragment   3

Summary assignment:
   4 orbitals assigned to fragment   1
   4 orbitals assigned to fragment   2
   4 orbitals assigned to fragment   3

PNO truncation parameters                   .... 
    PAOOverlapThresh   =        1.000e-08

Pair selection                          .... 
  modified with fragment specific keywords
  Pairs will be selected according to these
  intra(inter)fragment cutoffs
  1 <-> 1
    Intrafragment pairs 1 <-> 1 neglected for CCSD
  1 <-> 2
    TCutPairs          =        1.000e-05
    TCutPNO            =        3.330e-07
    TCutMKN            =        1.000e-03
    TCutDO             =        1.000e-02
    TCutPNOSingles     =        9.990e-09
    TCutMP2Pairs       =        1.000e-06
  1 <-> 3
    TCutPairs          =        1.000e-05
    TCutPNO            =        3.330e-07
    TCutMKN            =        1.000e-03
    TCutDO             =        1.000e-02
    TCutPNOSingles     =        9.990e-09
    TCutMP2Pairs       =        1.000e-06
  2 <-> 2
    Intrafragment pairs 2 <-> 2 neglected for CCSD
  2 <-> 3
    TCutPairs          =        1.000e-05
    TCutPNO            =        3.330e-07
    TCutMKN            =        1.000e-03
    TCutDO             =        1.000e-02
    TCutPNOSingles     =        9.990e-09
    TCutMP2Pairs       =        1.000e-06
  3 <-> 3
    Intrafragment pairs 3 <-> 3 neglected for CCSD

Type of local MP2 treatment                 .... semi-local MP2
Strategy for PNO selection                  .... occupation number selection
Pair density normalization                  .... MP2 norm
Spin component scaling                      .... not used

   .... Finished loop over pairs

 PNO Occupation Number Statistics: 
  | Av. % of trace(Dij) retained        ...  98.019644631903
  | sigma^2 in % of trace(Dij) retained ...   3.36e-01
  | Av. % of trace(Di) retained         ...  99.999933646859
  | sigma^2 in % of trace(Di) retained  ...   1.41e-09
 Distributions of % trace(Dij) recovered:
  |   [90.0, 99.0) ...    48 (100.0 % of all pairs)
 Distributions of % trace(Di) recovered :
  |       >= 99.9  ...    12 (100.0 % of all I-pairs )

Making pair pair interaction lists          ... done

                       ===========================
                         48 OF   60 PAIRS ARE KEPT
                       ===========================

Total time spent in the initial guess                 ...     0.281 sec
SL-MP2 correlation energy (all non-screened pairs)    ...      -0.003262522417 Eh

Initial PNO correlation energy                        ...      -0.003163203541 Eh
sum of pair energies estimated for screened out pairs ...       0.000000000000 Eh
sum of MP2 pair energies for pairs that were not kept ...       0.000000000000 Eh
sum of PNO error estimates for the kept pairs         ...      -0.000099318876 Eh
                                                          --------------------
sum of all corrections                                         -0.000099318876
Initial total correlation energy                               -0.003262522417
Thresholds for map construction and integral transformation for fine MP2 and CCSD(T) calculation:
   TCutMKN   ...     1.0e-03
   TCutDO    ...     1.0e-02
   TCutPairs ...     1.0e-05
   TCutCMO   ...     1.0e-03
   TCutCPAO  ...     1.0e-03

Time for aux screen maps:            0.000
Time for maps after fine MP2:            0.001
-----------------------------
LOCAL RI TRANSFORMATION (IJV)
-----------------------------

Orbital window:      15 to 26
Basis functions:     81 (33 shells)
Aux. functions:     276 (84 shells)
Use SHARK:           on

Processing maps (0.0 sec)
Average map sizes:
   Aux shells -> MOs(i)           12.0
   Aux shells -> MOs(j)           12.0
   MOs        -> AO shells        33.0

Calculating integrals NOTE: Switching SHARK to General Contraction for MDCI
      If that is not desired please turn off the PGCFlag in the input (%shark PGCFlag 0 end)
(0.8 sec, 0.306 MB)
Sorting integrals (0.0 sec, 0.303 MB)
Total time for the integral transformation: 0.8 sec
--------------------------------
LOCAL RI TRANSFORMATION (VABPAO)
--------------------------------

Number of PAOs:      81
Basis functions:     81 (33 shells)
Aux. functions:     276 (84 shells)
Use SHARK:           on

Processing maps (0.0 sec)
Average map sizes:
   Aux shells -> PAOs             81.0
   PAOs       -> AO shells        33.0

Calculating integrals NOTE: Switching SHARK to General Contraction for MDCI
      If that is not desired please turn off the PGCFlag in the input (%shark PGCFlag 0 end)
(0.4 sec, 13.819 MB)
Finished


-------------------------------------
Pair Pair Term precalculation with     
RI-(ij|mn) and (im|jn) transformation  
ON THE FLY                             
-------------------------------------

   IBatch   1 (of   1)              ... done (    0.294 sec)
Total EXT                           ...           0.294 sec

IAVPA Available = YES
VABPAO Available= YES
IJV Available   = YES
IJK Available   = NO
PNO3i Available = YES
PNO3j Available = YES
PNO4 Available  = YES
---------------------
RI-PNO TRANSFORMATION
---------------------

Total Number of PNOs                   ...   340
Average number of PNOs per pair        ...     7
Maximal number of PNOs per pair        ...    10
   #pairs with  1 -  5 PNOs   :    0
   #pairs with  6 - 10 PNOs   :   48
   #pairs with 11 - 15 PNOs   :    0
   #pairs with 16 - 20 PNOs   :    0
   #pairs with 21 - 25 PNOs   :    0
   #pairs with 26 - 30 PNOs   :    0
   #pairs with 31 - 35 PNOs   :    0
   #pairs with 36 - 40 PNOs   :    0
   #pairs with 41 - 45 PNOs   :    0
   #pairs with 46 - 50 PNOs   :    0

Generation of (ij|ab)[P] integrals            ... on
Generation of (ia|bc)[P],(ja|bc)[P] integrals ... on
Storage of 3 and 4 external integrals         ... on
Generation of ALL (ka|bc)[P] integrals        ... on
Keep RI integrals in memory                   ... off

Ibatch:  1 (of  1)
Starting 2-4 index PNO integral generation ... done

Timings:
Total PNO integral transformation time     ...          0.210 sec
Size of the 3-external file                ...         0 MB
Size of the 4-external file                ...         0 MB
Size of the IKJL file                      ...         0 MB
Size of the all 3-external file            ...         0 MB
Size of the 1-external file                ...         0 MB

Making pair/pair overlap matrices          ... done (    0.032 sec)
Size of the pair overlap file              ... 1 MB
Redoing the guess amplitudes               ... done (    0.000 sec)

-------------------------
FINAL STARTUP INFORMATION
-------------------------

E(0)                                       ...  -1580.398562298
E(SL-MP2)                                  ...     -0.003262522
E(SL-MP2) including corrections            ...     -0.003262522
Initial E(tot)                             ...  -1580.401824821
<T|T>                                      ...      0.001202258
Number of pairs included                   ... 48
Total number of pairs                      ... 78

------------------------------------------------
                  RHF COUPLED CLUSTER ITERATIONS
------------------------------------------------

Number of PNO amplitudes to be optimized   ...         2458
Number of non-PNO amplitudes               ...       139968
Untruncated number of regular amplitudes   ...       227448

Iter       E(tot)           E(Corr)          Delta-E          Residual     Time
  0  -1580.401824332     -0.003162715      0.000099807      0.000600567    0.05
                           *** Turning on DIIS ***
  1  -1580.401680959     -0.003019342      0.000143373      0.000125103    0.04
  2  -1580.401695178     -0.003033561     -0.000014219      0.000035878    0.04
  3  -1580.401696063     -0.003034446     -0.000000884      0.000011061    0.04
  4  -1580.401696369     -0.003034752     -0.000000306      0.000001448    0.04
  5  -1580.401696412     -0.003034795     -0.000000043      0.000000354    0.04
               --- The Coupled-Cluster iterations have converged ---

----------------------
COUPLED CLUSTER ENERGY
----------------------

E(0)                                       ...  -1580.398562298
E(CORR)(strong-pairs)                      ...     -0.003034795
E(CORR)(weak-pairs)                        ...     -0.000099319
E(CORR)(corrected)                         ...     -0.003134114
E(TOT)                                     ...  -1580.401696412
Singles Norm <S|S>**1/2                    ...      0.001696420  
T1 diagnostic                              ...      0.000346280  

------------------
LARGEST AMPLITUDES
------------------
  19-> 27  15-> 27       0.001815
  19-> 30  15-> 27       0.001323
  19-> 27  15-> 30       0.001323
  21-> 29  17-> 29       0.001317
  22-> 29  18-> 29       0.001312
  25-> 27  18-> 27       0.001258
  20-> 28  16-> 28       0.001253
  21-> 27  15-> 27       0.001207
  19-> 27  17-> 27       0.001207
  19-> 27  18-> 27       0.001206
  22-> 27  15-> 27       0.001204
  23-> 27  22-> 27       0.001192
  25-> 27  16-> 27       0.001184
  25-> 27  17-> 27       0.001166
  24-> 27  22-> 27       0.001130
  23-> 27  21-> 27       0.001124


 ===========================================================
         LOCAL ENERGY DECOMPOSITION FOR DLPNO-CC METHODS
 ===========================================================

Maximum Iterations for the Localization .. 600
Tolerance for the Localization          ..  1.00e-06
Number of fragments = 3
Fragment  1:  0
Fragment  2:  1
Fragment  3:  2

Populations of internal orbitals onto Fragments:
   0:      1.000    0.000    0.000  assigned to fragment   1
   1:      1.000    0.000    0.000  assigned to fragment   1
   2:      1.000    0.000    0.000  assigned to fragment   1
   3:      1.000    0.000    0.000  assigned to fragment   1
   4:      1.000    0.000    0.000  assigned to fragment   1
   5:      0.000    1.000    0.000  assigned to fragment   2
   6:      0.000    1.000    0.000  assigned to fragment   2
   7:      0.000    1.000    0.000  assigned to fragment   2
   8:      0.000    1.000    0.000  assigned to fragment   2
   9:      0.000    1.000    0.000  assigned to fragment   2
  10:      0.000    0.000    1.000  assigned to fragment   3
  11:      0.000    0.000    1.000  assigned to fragment   3
  12:      0.000    0.000    1.000  assigned to fragment   3
  13:      0.000    0.000    1.000  assigned to fragment   3
  14:      0.000    0.000    1.000  assigned to fragment   3
  15:      1.001    0.001    0.000  assigned to fragment   1
  16:      1.000    0.000    0.000  assigned to fragment   1
  17:      1.000    0.000    0.000  assigned to fragment   1
  18:      1.000    0.000    0.000  assigned to fragment   1
  19:      0.001    1.001    0.000  assigned to fragment   2
  20:      0.000    1.000    0.000  assigned to fragment   2
  21:      0.000    1.000    0.000  assigned to fragment   2
  22:      0.000    1.000    0.000  assigned to fragment   2
  23:      0.000    0.000    1.000  assigned to fragment   3
  24:      0.000    0.000    1.000  assigned to fragment   3
  25:      0.000    0.000    1.000  assigned to fragment   3
  26:      0.000    0.000    1.000  assigned to fragment   3

Summary assignment:
   9 orbitals assigned to fragment   1
   9 orbitals assigned to fragment   2
   9 orbitals assigned to fragment   3


--------------------------------
CORRELATION ENERGY DECOMPOSITION
--------------------------------


--------------------------------------------------
INTER- vs INTRA-FRAGMENT CORRELATION ENERGIES (Eh)
--------------------------------------------------

                                   Fragment   1            Fragment   2            Fragment   3            
                         ----------------------  ----------------------  ----------------------  
Intra strong pairs               0.000000000000         0.000000000000         0.000000000000  sum=        0.000000000000
Intra weak pairs                 0.000000000000         0.000000000000         0.000000000000  sum=        0.000000000000
Singles contribution            -0.000000000090        -0.000000000095        -0.000000000020  sum=       -0.000000000205
                         ----------------------  ----------------------  ----------------------  
                                -0.000000000090        -0.000000000095        -0.000000000020  sum=       -0.000000000205


Interaction correlation for Fragments   2 and   1:
--------------------------------------------------
Inter strong pairs               -0.001525102656 (   -0.957 kcal/mol)
Inter weak pairs                 -0.000049891319 (   -0.031 kcal/mol)
                          ----------------------
Total interaction                -0.001574993975 (   -0.988 kcal/mol)

Interaction correlation for Fragments   3 and   1:
--------------------------------------------------
Inter strong pairs               -0.000754856738 (   -0.474 kcal/mol)
Inter weak pairs                 -0.000024731569 (   -0.016 kcal/mol)
                          ----------------------
Total interaction                -0.000779588307 (   -0.489 kcal/mol)
Interaction correlation for Fragments   3 and   2:
--------------------------------------------------
Inter strong pairs               -0.000754835497 (   -0.474 kcal/mol)
Inter weak pairs                 -0.000024695989 (   -0.015 kcal/mol)
                          ----------------------
Total interaction                -0.000779531485 (   -0.489 kcal/mol)



Sum of INTRA-fragment correlation energies  =        -0.000000000205
Sum of INTER-fragment correlation energies  =        -0.003134113767
                                              ---------------------
Total correlation energy                    =        -0.003134113971

---------------------------------------------
DECOMPOSITION OF CCSD STRONG PAIRS INTO      
    DOUBLE EXCITATION TYPES (Eh)             
---------------------------------------------

Foster-Boys localization is used for localizing PNOs

Intra fragment contributions: 
INTRA Fragment 1                        0.000000000 
INTRA Fragment 2                        0.000000000 
INTRA Fragment 3                        0.000000000 

Charge transfer contributions: 
Charge Transfer 1 to 2                 -0.000081769 
Charge Transfer 1 to 3                 -0.000017361 
Charge Transfer 2 to 1                 -0.000081703 
Charge Transfer 2 to 3                 -0.000016168 
Charge Transfer 3 to 1                 -0.000029497 
Charge Transfer 3 to 2                 -0.000028687 

Dispersion contributions: 
Dispersion  2,1                        -0.001361630 
Dispersion  3,1                        -0.000707999 
Dispersion  3,2                        -0.000709981 

Singles contributions:                   
Singles energy                         -0.000000000 
 
Delocalized contributions: 
Delocalized correlation                 0.000000000 

#Time for LED analysis ..       0.0 (sec)



--------------------------------------------------------------------------------
                                    TIMINGS
--------------------------------------------------------------------------------


Total execution time                   ...        5.329 sec

Localization of occupied MO's          ...        0.166 sec (  3.1%)
Fock Matrix Formation                  ...        1.329 sec ( 24.9%)
Global overlap, Fock, MKN matrices     ...        0.229 sec (  4.3%)
Differential overlap integrals         ...        0.367 sec (  6.9%)
Organizing maps                        ...        0.003 sec (  0.1%)
RI 3-index integral generations        ...        1.554 sec ( 29.2%)
RI-PNO integral transformation         ...        0.538 sec ( 10.1%)
Initial Guess                          ...        0.483 sec (  9.1%)
DIIS Solver                            ...        0.003 sec (  0.1%)
State Vector Update                    ...        0.000 sec (  0.0%)
Sigma-vector construction              ...        0.254 sec (  4.8%)
  <D|H|D>(0-ext)                       ...        0.031 sec ( 12.0% of sigma)
  <D|H|D>(2-ext)                       ...        0.067 sec ( 26.4% of sigma)
  <D|H|D>(4-ext)                       ...        0.002 sec (  0.8% of sigma)
  <D|H|D>(4-ext-corr)                  ...        0.006 sec (  2.6% of sigma)
  CCSD doubles correction              ...        0.006 sec (  2.3% of sigma)
  <S|H|S>                              ...        0.017 sec (  6.7% of sigma)
  <S|H|D>(1-ext)                       ...        0.013 sec (  5.2% of sigma)
  <S|H|D>(3-ext)                       ...        0.002 sec (  0.7% of sigma)
  Fock-dressing                        ...        0.065 sec ( 25.7% of sigma)
  Singles amplitudes                   ...        0.003 sec (  1.2% of sigma)
  (ik|jl)-dressing                     ...        0.019 sec (  7.5% of sigma)
  (ij|ab),(ia|jb)-dressing             ...        0.019 sec (  7.6% of sigma)
Local Energy Decomposition             ...        0.012 sec (  0.2% of ALL)


Maximum memory used throughout the entire MDCI-calculation: 75.2 MB
----------------------------   ----------------
Inter-fragment dispersion       -0.002878928
----------------------------   ----------------


-------------------------   --------------------
FINAL SINGLE POINT ENERGY     -1580.401441226413 
-------------------------   --------------------


------------------------------------------------------------------------------
                              ORCA PROPERTY CALCULATIONS
------------------------------------------------------------------------------

GBWName                                 ... AR3LD_3.6_3.6_3.2.gbw
Number of atoms                         ...      3
Number of basis functions               ...    150
Max core memory                         ...   1024 MB

Electric properties:
Dipole moment                           ... YES
Quadrupole moment                       ...  NO
Static polarizability (Dipole/Dipole)   ...  NO
Static polarizability (Dipole/Quad.)    ...  NO
Static polarizability (Quad./Quad.)     ...  NO
Static polarizability (Velocity)        ...  NO

Atomic electric properties:
Dipole moment                           ...  NO
Quadrupole moment                       ...  NO
Static polarizability                   ...  NO

Choice of electric origin               ... Center of mass
Position of electric origin             ...     3.023562     2.031395     0.000000

General magnetic properties:
Magnetizability                         ...  NO

EPR properties:
g-Tensor (aka g-matrix)                 ...  NO
Zero-Field splitting spin-orbit         ...  NO
Zero-field splitting spin-spin          ...  NO
Hyperfine couplings                     ...  NO (   0 nuclei)
Quadrupole couplings                    ...  NO (   0 nuclei)
Contact density                         ...  NO (   0 nuclei)

NMR properties:
Chemical shifts                         ...  NO (   0 nuclei)
Spin-rotation constants                 ...  NO (   0 nuclei)
Spin-spin couplings                     ...  NO (   0 nuclei,    0 pairs)

Choice of magnetic origin               ... GIAO
Position of magnetic origin             ...     0.000000     0.000000     0.000000

Properties with geometric perturbations:
SCF Hessian                             ...  NO
IR spectrum                             ...  NO
VCD spectrum                            ...  NO
X-ray spectroscopy properties:
SCF XES/XAS/RIXS spectra                ...  NO


-------------
DIPOLE MOMENT
-------------

Method             : SCF
Type of density    : Electron Density
Multiplicity       :   1
Irrep              :   0
Energy             : -1580.3985622981367669 Eh
Relativity type    : 
Basis              : AO
                                X                 Y                 Z
Electronic contribution:     -0.000000000       0.000609173      -0.000000000
Nuclear contribution   :      0.000000000      -0.000000000       0.000000000
                        -----------------------------------------
Total Dipole Moment    :     -0.000000000       0.000609173      -0.000000000
                        -----------------------------------------
Magnitude (a.u.)       :      0.000609173
Magnitude (Debye)      :      0.001548394



--------------------
Rotational spectrum 
--------------------
 
Rotational constants in cm-1:             0.082420             0.060864             0.035010 
Rotational constants in MHz :          2470.885392          1824.653828          1049.579635 

Dipole components along the rotational axes: 
x,y,z [a.u.] :     0.000609    -0.000000    -0.000000 
x,y,z [Debye]:     0.001548    -0.000000    -0.000000 

 

Dipole moment calculation done in   0.0 sec 

Maximum memory used throughout the entire PROP-calculation: 6.8 MB

--------------------------------
SUGGESTED CITATIONS FOR THIS RUN
--------------------------------

Below you find a list of papers that are relevant to this ORCA run
We neither can nor want to force you to cite these papers, but we appreciate if you do
You receive ORCA, which is the product of decades of hard work by many enthusiastic individuals, for free
The only thing we kindly ask in return is that you cite our papers,
We deeply appreciate it, if you show your appreciation for ORCA by not just citing the generic ORCA reference.

Please note that relegating all ORCA citations to the supporting information does *not* help us.
SI sections are not indexed - citations you put there will not count into any citation statistics
But we need these citations in order to attract the funding resources that allow us to do what we are doing

Therefore, if you are a happy ORCA user, please consider citing a few of the papers listed below in the main body of your paper

In addition to the list printed below, the program has created the file AR3LD_3.6_3.6_3.2.bibtex that contains the list in bibtex format
You can import this file easily into all common literature databanks and citation aid programs


List of essential papers. We consider these as the minimum necessary citations

  1. Neese,F.
     Software update: the ORCA program system, version 5.0
     WIRES Comput. Molec. Sci., 2022 12(1)e1606
     doi.org/10.1002/wcms.1606

List of papers to cite with high priority. The work reported in these papers was absolutely
necessary for this run to complete.
Our perspective: the developers of density functionals and basis sets usually get cited in chemistry papers
Good! But without the algorithms to do something with them, the functionals or basis sets would not do anything.
Hence, in our opinion, the algorithm design and method developments papers are equally worthy of getting cited

  1. Neese,F.; Hansen,A.; Liakos,D.G.
     Efficient and accurate approximations to the local coupled cluster singles doubles method using a truncated pair natural orbital basis
     J. Chem. Phys., 2009 131 064103
     doi.org/10.1063/1.3173827
  2. Neese,F.; Wennmohs,F.; Hansen,A.
     Efficient and accurate local approximations to coupled-electron pair approaches: An attempt to revive the pair natural orbital method
     J. Chem. Phys., 2009 130 114108
     doi.org/10.1063/1.3086717
  3. Riplinger,C.; Neese,F.
     An efficient and near linear scaling pair natural orbital based local coupled cluster method
     J. Chem. Phys., 2013 138(3)Art. No. 034106
     doi.org/10.1063/1.4773581
  4. Datta,D.; Kossmann,S.; Neese,F.
     Analytic energy derivatives for the calculation of the first-order molecular properties using the domain-based local pair-natural orbital coupled-cluster theory
     J. Chem. Phys., 2016 145 
     doi.org/10.1063/1.4962369
  5. Riplinger,C.; Pinski,P.; Becker,U.; Valeev,E.F.; Neese,F.
     Sparse maps-A systematic infrastructure for reduced-scaling electronic structure methods. II. Linear scaling domain based pair natural orbital coupled cluster theory
     J. Chem. Phys., 2016 144 
     doi.org/10.1063/1.4939030
  6. Schneider,W.B.; Bistoni,G.; Sparta,M.; Saitow,M.; Riplinger,C.; Auer,A.A.; Neese,F.
     Decomposition of Intermolecular Interaction Energies within the Local Pair Natural Orbital Coupled Cluster Framework
     J. Theo. Comp. Chem., 2016 12 4778-4792
     doi.org/10.1021/acs.jctc.6b00523
  7. Bistoni,G.; Riplinger,C.; Minenkov,Y.; Cavallo,L.; Auer,A.A.; Neese,F.
     Treating Subvalence Correlation Effects in Domain Based Pair Natural Orbital Coupled Cluster Calculations: An Out-of-the-Box Approach
     J. Theo. Comp. Chem., 2017 13 3220-3227
     doi.org/10.1021/acs.jctc.7b00352
  8. Altun,A.; Neese,F.; Bistoni,G.
     HFLD: A Nonempirical London Dispersion-Corrected Hartree-Fock Method for the Quantification and Analysis of Noncovalent Interaction Energies of Large Molecular Systems
     J. Chem. Theory Comput., 2019 15 5894-5907
     doi.org/10.1021/acs.jctc.9b00425
  9. Neese,F.
     The SHARK Integral Generation and Digestion System
     J. Comp. Chem., 2022  1-16
     doi.org/10.1002/jcc.26942
 10. Altun,A.; Neese,F.; Bistoni,G.
     Open-Shell Variant of the London Dispersion-Corrected Hartree–Fock Method (HFLD) for the Quantification and Analysis of Noncovalent Interaction Energies
     J. Chem. Theory Comput., 2022 XX XXXX-XXXX
     doi.org/10.1021/acs.jctc.1c01295

List of suggested additional citations. These are papers that are important in the 'surrounding' of 
of this run, or papers that preceded the highly important papers. If you like your results we are grateful for a citation.

  1. Neese,F.
     The ORCA program system
     WIRES Comput. Molec. Sci., 2012 2(1)73-78
     doi.org/10.1002/wcms.81
  2. Neese,F.
     Software update: the ORCA program system, version 4.0
     WIRES Comput. Molec. Sci., 2018 8(1)1-6
     doi.org/10.1002/wcms.1327
  3. Neese,F.; Wennmohs,F.; Becker,U.; Riplinger,C.
     The ORCA quantum chemistry program package
     J. Chem. Phys., 2020 152 Art. No. L224108
     doi.org/10.1063/5.0004608
  4. Bistoni,G.
     Finding chemical concepts in the Hilbert space: Coupled cluster analyses of noncovalent interactions
     WIRES Comput. Molec. Sci., 2020 10(3)e1442
     doi.org/10.1002/wcms.1442

List of optional additional citations

  1. Neese,F.
     Approximate second-order SCF convergence for spin unrestricted wavefunctions
     Chem. Phys. Lett., 2000 325(1-3)93-98
     doi.org/10.1016/s0009-2614(00)00662-x

Timings for individual modules:

Sum of individual times          ...       15.151 sec (=   0.253 min)
Startup calculation              ...        2.335 sec (=   0.039 min)  15.4 %
SCF iterations                   ...        7.295 sec (=   0.122 min)  48.2 %
Property integrals               ...        0.101 sec (=   0.002 min)   0.7 %
Property calculations            ...        0.058 sec (=   0.001 min)   0.4 %
MDCI module                      ...        5.362 sec (=   0.089 min)  35.4 %
                             ****ORCA TERMINATED NORMALLY****
TOTAL RUN TIME: 0 days 0 hours 0 minutes 15 seconds 227 msec
