
                                 *****************
                                 * O   R   C   A *
                                 *****************

                                            #,                                       
                                            ###                                      
                                            ####                                     
                                            #####                                    
                                            ######                                   
                                           ########,                                 
                                     ,,################,,,,,                         
                               ,,#################################,,                 
                          ,,##########################################,,             
                       ,#########################################, ''#####,          
                    ,#############################################,,   '####,        
                  ,##################################################,,,,####,       
                ,###########''''           ''''###############################       
              ,#####''   ,,,,##########,,,,          '''####'''          '####       
            ,##' ,,,,###########################,,,                        '##       
           ' ,,###''''                  '''############,,,                           
         ,,##''                                '''############,,,,        ,,,,,,###''
      ,#''                                            '''#######################'''  
     '                                                          ''''####''''         
             ,#######,   #######,   ,#######,      ##                                
            ,#'     '#,  ##    ##  ,#'     '#,    #''#        ,####,   ,####,        
            ##       ##  ##   ,#'  ##            #'  '#       #'       #'  '#        
            ##       ##  #######   ##           ,######,      #####,   #    #        
            '#,     ,#'  ##    ##  '#,     ,#' ,#      #,     #,   #   #,  ,#        
             '#######'   ##     ##  '#######'  #'      '#     '####' # '####'        



                #########################################################
                #                        -***-                          #
                #          Department of theory and spectroscopy        #
                #                                                       #
                #                      Frank Neese                      #
                #                                                       #
                #     Directorship, Architecture, Infrastructure        #
                #                    SHARK, DRIVERS                     #
                #        Core code/Algorithms in most modules           #
                #                                                       #
                #        Max Planck Institute fuer Kohlenforschung      #
                #                Kaiser Wilhelm Platz 1                 #
                #                 D-45470 Muelheim/Ruhr                 #
                #                      Germany                          #
                #                                                       #
                #                  All rights reserved                  #
                #                        -***-                          #
                #########################################################


                         Program Version 6.0.0  -   RELEASE  -


 With contributions from (in alphabetic order):
   Daniel Aravena         : Magnetic Suceptibility
   Michael Atanasov       : Ab Initio Ligand Field Theory (pilot matlab implementation)
   Alexander A. Auer      : GIAO ZORA, VPT2 properties, NMR spectrum
   Ute Becker             : All parallelization in ORCA, NUMFREQ, NUMCALC
   Giovanni Bistoni       : ED, misc. LED, open-shell LED, HFLD
   Martin Brehm           : Molecular dynamics
   Dmytro Bykov           : pre 5.0 version of the SCF Hessian
   Marcos Casanova-Páez   : Triplet and SCS-CIS(D). UHF-(DLPNO)-IP/EA/STEOM-CCSD. UHF-CVS-IP/STEOM-CCSD
   Vijay G. Chilkuri      : MRCI spin determinant printing, contributions to CSF-ICE
   Pauline Colinet        : FMM embedding
   Dipayan Datta          : RHF DLPNO-CCSD density
   Achintya Kumar Dutta   : EOM-CC, STEOM-CC
   Nicolas Foglia         : Exact transition moments, OPA infrastructure, MCD improvements
   Dmitry Ganyushin       : Spin-Orbit,Spin-Spin,Magnetic field MRCI
   Miquel Garcia          : C-PCM and meta-GGA Hessian, CCSD/C-PCM, Gaussian charge scheme
   Tiago L. C. Gouveia    : GS-ROHF, GS-ROCIS
   Yang Guo               : DLPNO-NEVPT2, F12-NEVPT2, CIM, IAO-localization
   Andreas Hansen         : Spin unrestricted coupled pair/coupled cluster methods
   Ingolf Harden          : AUTO-CI MPn and infrastructure 
   Benjamin Helmich-Paris : MC-RPA, TRAH-(SCF,CASSCF), AVAS, COSX integrals, SCF dyn. polar.
   Lee Huntington         : MR-EOM, pCC
   Robert Izsak           : Overlap fitted RIJCOSX, COSX-SCS-MP3, EOM
   Riya Kayal             : Wick's Theorem for AUTO-CI, AUTO-CI UHF-CCSDT
   Emily Kempfer          : AUTO-CI, RHF CISDT and CCSDT
   Christian Kollmar      : KDIIS, OOCD, Brueckner-CCSD(T), CCSD density, CASPT2, CASPT2-K, improved NEVPT2
   Axel Koslowski         : Symmetry handling
   Simone Kossmann        : Meta GGA functionals, TD-DFT gradient, OOMP2, (MP2 Hessian; deprecated post 5.0)
   Lucas Lang             : DCDCAS
   Marvin Lechner         : AUTO-CI (C++ implementation), FIC-MRCC
   Spencer Leger          : CASSCF response
   Dagmar Lenk            : GEPOL surface, SMD, ORCA-2-JSON
   Dimitrios Liakos       : Extrapolation schemes; Compound Job, initial MDCI parallelization
   Dimitrios Manganas     : Further ROCIS development; embedding schemes. LFT, Crystal Embedding
   Dimitrios Pantazis     : SARC Basis sets
   Anastasios Papadopoulos: AUTO-CI, single reference methods and gradients
   Taras Petrenko         : pre 6.0 DFT Hessian and TD-DFT gradient, (ASA, deprecated), ECA, 1-Electron XAS/XES, NRVS
   Peter Pinski           : DLPNO-MP2, DLPNO-MP2 Gradient
   Christoph Reimann      : Effective Core Potentials
   Marius Retegan         : Local ZFS, SOC
   Christoph Riplinger    : Optimizer, TS searches, QM/MM, DLPNO-CCSD(T), (RO)-DLPNO pert. Triples
   Michael Roemelt        : Original ROCIS implementation
   Masaaki Saitow         : Open-shell DLPNO-CCSD energy and density
   Barbara Sandhoefer     : DKH picture change effects
   Kantharuban Sivalingam : CASSCF convergence/infrastructure, NEVPT2 and variants, FIC-MRCI
   Bernardo de Souza      : ESD, SOC TD-DFT
   Georgi Stoychev        : AutoAux, RI-MP2 NMR, DLPNO-MP2 response, X2C
   Van Anh Tran           : RI-MP2 g-tensors
   Willem Van den Heuvel  : Paramagnetic NMR
   Zikuan Wang            : NOTCH, Electric field optimization 
   Frank Wennmohs         : Technical directorship and infrastructure
   Hang Xu                : AUTO-CI-Response properties 


 We gratefully acknowledge several colleagues who have allowed us to
 interface, adapt or use parts of their codes:
   Stefan Grimme, W. Hujo, H. Kruse, P. Pracht,  : VdW corrections, initial TS optimization,
                  C. Bannwarth, S. Ehlert,         DFT functionals, gCP, sTDA/sTD-DF
                  L. Wittmann, M. Mueller
   Ed Valeev, F. Pavosevic, A. Kumar             : LibInt (2-el integral package), F12 methods
   Garnet Chan, S. Sharma, J. Yang, R. Olivares  : DMRG
   Ulf Ekstrom                                   : XCFun DFT Library
   Mihaly Kallay                                 : mrcc  (arbitrary order and MRCC methods)
   Frank Weinhold                                : gennbo (NPA and NBO analysis)
   Simon Mueller                                 : openCOSMO-RS
   Christopher J. Cramer and Donald G. Truhlar   : smd solvation model
   Lars Goerigk                                  : TD-DFT with DH, B97 family of functionals
   V. Asgeirsson, H. Jonsson                     : NEB implementation
   FAccTs GmbH                                   : IRC, NEB, NEB-TS, DLPNO-Multilevel, CI-OPT
                                                   MM, QMMM, 2- and 3-layer-ONIOM, Crystal-QMMM,
                                                   LR-CPCM, SF, NACMEs, symmetry and pop. for TD-DFT,
                                                   nearIR, NL-DFT gradient (VV10), updates on ESD,
                                                   ML-optimized integration grids, MBIS, APM,
                                                   GOAT, DOCKER, SOLVATOR, interface openCOSMO-RS
   S Lehtola, MJT Oliveira, MAL Marques          : LibXC Library
   Liviu Ungur et al                             : ANISO software


 Your calculation uses the libint2 library for the computation of 2-el integrals
 For citations please refer to: http://libint.valeyev.net

 Your ORCA version has been built with support for libXC version: 6.2.2
 For citations please refer to: https://libxc.gitlab.io

 This ORCA versions uses:
   CBLAS   interface :  Fast vector & matrix operations
   LAPACKE interface :  Fast linear algebra routines
   SCALAPACK package :  Parallel linear algebra routines
   Shared memory     :  Shared parallel matrices
   BLAS/LAPACK       :  OpenBLAS 0.3.27  USE64BITINT DYNAMIC_ARCH NO_AFFINITY Haswell SINGLE_THREADED
        Core in use  :  Haswell
   Copyright (c) 2011-2014, The OpenBLAS Project


================================================================================

----- Orbital basis set information -----
Your calculation utilizes the basis: aug-cc-pVDZ 
    H, B-Ne : Obtained from the ccRepo (grant-hill.group.shef.ac.uk/ccrepo) Feb. 2017
              R. A. Kendall, T. H. Dunning, Jr., R. J. Harrison, J. Chem. Phys. 96, 6796 (1992)
         He : Obtained from the ccRepo (grant-hill.group.shef.ac.uk/ccrepo) Feb. 2017
              D. E. Woon, T. H. Dunning, Jr., J. Chem. Phys. 100, 2975 (1994)
  Li-Be, Na : Obtained from the ccRepo (grant-hill.group.shef.ac.uk/ccrepo) Feb. 2017
              B. P. Prascher, D. E. Woon, K. A. Peterson, T. H. Dunning, Jr., A. K. Wilson, Theor. Chem. Acc. 128, 69 (2011)
         Mg : Obtained from the Peterson Research Group Website (tyr0.chem.wsu.edu/~kipeters) Feb. 2017
              B. P. Prascher, D. E. Woon, K. A. Peterson, T. H. Dunning, Jr., A. K. Wilson, Theor. Chem. Acc. 128, 69 (2011)
      Al-Ar : Obtained from the ccRepo (grant-hill.group.shef.ac.uk/ccrepo) Feb. 2017
              D. E. Woon, T. H. Dunning, Jr., J. Chem. Phys. 98, 1358 (1993)
      Sc-Zn : Obtained from the ccRepo (grant-hill.group.shef.ac.uk/ccrepo) Feb. 2017
              N. B. Balabanov, K. A. Peterson, J. Chem. Phys. 123, 064107 (2005)
              N. B. Balabanov, K. A. Peterson, J. Chem. Phys. 125, 074110 (2006)
      Ga-Kr : Obtained from the ccRepo (grant-hill.group.shef.ac.uk/ccrepo) Feb. 2017
              A. K. Wilson, D. E. Woon, K. A. Peterson, T. H. Dunning, Jr., J. Chem. Phys. 110, 7667 (1999)

----- AuxC basis set information -----
Your calculation utilizes the auxiliary basis: aug-cc-pVDZ/C 
  H-He, B, Ne, Al-Ar, Ga-Ge, Se-Br : Obtained from the EMSL Basis Set Exchange (bse.pnl.gov) Feb. 2017
                                     F. Weigend, A. Kohn, C. Hattig, J. Chem. Phys. 116, 3175 (2002)
                            Be, Mg : Obtained from the TURBOMOLE 7.0 basis set library
                                     C. Haettig, Phys. Chem. Chem. Phys. 7, 59 (2005)
                               C-F : Obtained from the EMSL Basis Set Exchange (bse.pnl.gov) Feb. 2017
                                     C. Haettig, Phys. Chem. Chem. Phys. 7, 59 (2005)
                                     F. Weigend, A. Kohn, C. Hattig, J. Chem. Phys. 116, 3175 (2002)
                                As : Obtained from the EMSL Basis Set Exchange (bse.pnl.gov) Feb. 2017
                                     C. Haettig, G. Schmitz, J. Kossmann, Phys. Chem. Chem. Phys. 14, 6549 (2012)
                                Kr : Obtained from the TURBOMOLE 7.0 basis set library
                                     F. Weigend, A. Kohn, C. Hattig, J. Chem. Phys. 116, 3175 (2002)
                                     S function revised in Sep. 2009

================================================================================
                                        WARNINGS
                       Please study these warnings very carefully!
================================================================================


WARNING: Post HF methods need fully converged wavefunctions
  ===> : Setting SCFConvForced true
         You can overwrite this default with %scf ConvForced false 


================================================================================
                                       INPUT FILE
================================================================================
NAME = AR3LD_3.6_4.0_4.4.inp
|  1> # MP2 scan of the potential energy curve for Ar...Ar
|  2>                 ! HFLD aug-cc-pvdz aug-cc-pvdz/C verytightscf
|  3>                 *xyz 0 1
|  4>                 Ar(1)	0    0	0.00000000000000
|  5>                 Ar(2)	4.4	0    0.00000000000000
|  6>                 Ar(3)	2.5454545454545454	3.0855568633594803    0.00000000000000
|  7>                 **                         ****END OF INPUT****
================================================================================

                       ****************************
                       * Single Point Calculation *
                       ****************************

---------------------------------
CARTESIAN COORDINATES (ANGSTROEM)
---------------------------------
  Ar     0.000000    0.000000    0.000000
  Ar     4.400000    0.000000    0.000000
  Ar     2.545455    3.085557    0.000000

----------------------------
CARTESIAN COORDINATES (A.U.)
----------------------------
  NO LB      ZA    FRAG     MASS         X           Y           Z
   0 Ar   18.0000    1    39.948    0.000000    0.000000    0.000000
   1 Ar   18.0000    2    39.948    8.314795    0.000000    0.000000
   2 Ar   18.0000    3    39.948    4.810212    5.830857    0.000000

----------------------------------------------
CARTESIAN COORDINATES OF FRAGMENTS (ANGSTROEM)
----------------------------------------------

 FRAGMENT 1 
  Ar    0.000000    0.000000    0.000000

 FRAGMENT 2 
  Ar    4.400000    0.000000    0.000000

 FRAGMENT 3 
  Ar    2.545455    3.085557    0.000000

--------------------------------
INTERNAL COORDINATES (ANGSTROEM)
--------------------------------
 Ar     0   0   0     0.000000000000     0.00000000     0.00000000
 Ar     1   0   0     4.400000000000     0.00000000     0.00000000
 Ar     2   1   0     3.600000000000    58.99241699     0.00000000

---------------------------
INTERNAL COORDINATES (A.U.)
---------------------------
 Ar     0   0   0     0.000000000000     0.00000000     0.00000000
 Ar     1   0   0     8.314794989254     0.00000000     0.00000000
 Ar     2   1   0     6.803014082117    58.99241699     0.00000000

---------------------
BASIS SET INFORMATION
---------------------
There are 1 groups of distinct atoms

 Group   1 Type Ar  : 35s16p2d contracted to 5s4p2d pattern {11111111/7711/11}

Atom   0Ar   basis set group =>   1
Atom   1Ar   basis set group =>   1
Atom   2Ar   basis set group =>   1
---------------------------------
AUXILIARY/C BASIS SET INFORMATION
---------------------------------
There are 1 groups of distinct atoms

 Group   1 Type Ar  : 10s8p6d4f contracted to 10s8p6d4f pattern {1111111111/11111111/111111/1111}

Atom   0Ar   basis set group =>   1
Atom   1Ar   basis set group =>   1
Atom   2Ar   basis set group =>   1
------------------------------------------------------------------------------
                             ORCA STARTUP CALCULATIONS
------------------------------------------------------------------------------
------------------------------------------------------------------------------
                   ___                                                        
                  /   \      - P O W E R E D   B Y -                         
                 /     \                                                     
                 |  |  |   _    _      __       _____    __    __             
                 |  |  |  | |  | |    /  \     |  _  \  |  |  /  |          
                  \  \/   | |  | |   /    \    | | | |  |  | /  /          
                 / \  \   | |__| |  /  /\  \   | |_| |  |  |/  /          
                |  |  |   |  __  | /  /__\  \  |    /   |      \           
                |  |  |   | |  | | |   __   |  |    \   |  |\   \          
                \     /   | |  | | |  |  |  |  | |\  \  |  | \   \       
                 \___/    |_|  |_| |__|  |__|  |_| \__\ |__|  \__/        
                                                                              
                      - O R C A' S   B I G   F R I E N D -                    
                                      &                                       
                       - I N T E G R A L  F E E D E R -                       
                                                                              
 v1 FN, 2020, v2 2021, v3 2022-2024                                           
------------------------------------------------------------------------------


----------------------
SHARK INTEGRAL PACKAGE
----------------------

Number of atoms                             ...      3
Number of basis functions                   ...    150
Number of shells                            ...     72
Maximum angular momentum                    ...      2
Integral batch strategy                     ... SHARK/LIBINT Hybrid
RI-J (if used) integral strategy            ... SPLIT-RIJ (Revised 2003 algorithm where possible)
Printlevel                                  ...      1
Contraction scheme used                     ... PARTIAL GENERAL contraction
Prescreening option                         ... SCHWARTZ
   Thresh                                   ... 1.000e-12
   Tcut                                     ... 1.000e-14
   Tpresel                                  ... 1.000e-14 
Coulomb Range Separation                    ... NOT USED
Exchange Range Separation                   ... NOT USED
Multipole approximations                    ... NOT USED
Finite Nucleus Model                        ... NOT USED
CABS basis                                  ... NOT available
Auxiliary Coulomb fitting basis             ... NOT available
Auxiliary J/K fitting basis                 ... NOT available
Auxiliary Correlation fitting basis         ... AVAILABLE
   # of basis functions in Aux-C            ...    276
   # of shells in Aux-C                     ...     84
   Maximum angular momentum in Aux-C        ...      3
Auxiliary 'external' fitting basis          ... NOT available

Checking pre-screening integrals            ... done (  0.0 sec) Dimension = 72
Save PGC pre-screening integrals            ... done (  0.0 sec) Dimension = 72
Calculate PGC overlap integrals             ... done (  0.0 sec) Dimension = 33
Calculating pre-screening integrals (ORCA)  ... done (  0.1 sec) Dimension = 33
Check shell pair data                       ... done (  0.0 sec)
Shell pair information
Shell pair cut-off parameter TPreSel        ...   1.0e-14
Total number of shell pairs                 ...      2628
Shell pairs after pre-screening             ...      1678
Total number of primitive shell pairs       ...      2628
Primitive shell pairs kept                  ...      1678
          la=0 lb=0:    432 shell pairs
          la=1 lb=0:    641 shell pairs
          la=1 lb=1:    256 shell pairs
          la=2 lb=0:    186 shell pairs
          la=2 lb=1:    142 shell pairs
          la=2 lb=2:     21 shell pairs

Calculating one electron integrals          ... done (  0.0 sec)
Calculating RI/C V-Matrix + Cholesky decomp.... done (  0.0 sec)
Calculating Nuclear repulsion               ... done (  0.0 sec) ENN=    129.455987957755 Eh

Diagonalization of the overlap matrix:
Smallest eigenvalue                        ... 2.764e-02
Time for diagonalization                   ...    0.000 sec
Threshold for overlap eigenvalues          ... 1.000e-07
Number of eigenvalues below threshold      ... 0
Time for construction of square roots      ...    0.000 sec
Total time needed                          ...    0.001 sec

-------------------
DFT GRID GENERATION
-------------------

General Integration Accuracy     IntAcc      ... 4.388
Radial Grid Type                 RadialGrid  ... OptM3 with GC (2021)
Angular Grid (max. ang.)         AngularGrid ... 4 (Lebedev-302)
Angular grid pruning method      GridPruning ... 4 (adaptive)
Weight generation scheme         WeightScheme... mBecke (2022)
Basis function cutoff            BFCut       ... 1.0000e-12
Integration weight cutoff        WCut        ... 1.0000e-14
Partially contracted basis set               ... off
Rotationally invariant grid construction     ... off
Angular grids for H and He will be reduced by one unit

Total number of grid points                  ...    22089
Total number of batches                      ...      347
Average number of points per batch           ...       63
Average number of grid points per atom       ...     7363

---------------------
SHARK GRID GENERATION
---------------------

General Integration Accuracy     IntAcc      ... 4.388
Radial Grid Type                 RadialGrid  ... OptM3 with GC (2021)
Angular Grid (max. ang.)         AngularGrid ... 4 (Lebedev-302)
Angular grid pruning method      GridPruning ... 4 (adaptive)
Weight generation scheme         WeightScheme... mBecke (2022)
Basis function cutoff            BFCut       ... 1.0000e-12
Integration weight cutoff        WCut        ... 1.0000e-14
Partially contracted basis set               ... off
Rotationally invariant grid construction     ... off
Angular grids for H and He will be reduced by one unit
Core-polarized basis detected: some atoms will have their core
                               angular grid increased.
Steep s-basis detected: some atoms will have their radial
                        grid points doubled.

Total number of grid points                  ...    58035
Total number of batches                      ...      908
Average number of points per batch           ...       63
Average number of grid points per atom       ...    19345
Initializing property integral containers    ... done (  0.0 sec)

SHARK setup successfully completed in   0.9 seconds

Maximum memory used throughout the entire STARTUP-calculation: 27.4 MB
-------------------------------------------------------------------------------
                                 ORCA GUESS
                   Start orbitals & Density for SCF / CASSCF
-------------------------------------------------------------------------------

------------
SCF SETTINGS
------------
Hamiltonian:
 Ab initio Hamiltonian  Method          .... Hartree-Fock(GTOs)


General Settings:
 Integral files         IntName         .... AR3LD_3.6_4.0_4.4
 Hartree-Fock type      HFTyp           .... RHF
 Total Charge           Charge          ....    0
 Multiplicity           Mult            ....    1
 Number of Electrons    NEL             ....   54
 Basis Dimension        Dim             ....   81
 Nuclear Repulsion      ENuc            ....    129.4559879578 Eh

Convergence Acceleration:
 AO-DIIS                CNVDIIS         .... on
   Start iteration      DIISMaxIt       ....    12
   Startup error        DIISStart       ....  0.200000
   # of expansion vecs  DIISMaxEq       ....     5
   Bias factor          DIISBfac        ....   1.050
   Max. coefficient     DIISMaxC        ....  10.000
 MO-DIIS                CNVKDIIS        .... off
 Trust-Rad. Augm. Hess. CNVTRAH         .... auto
   Auto Start mean grad. ratio tolernc. ....  1.125000
   Auto Start start iteration           ....    50
   Auto Start num. interpolation iter.  ....    10
   Max. Number of Micro iterations      ....    24
   Max. Number of Macro iterations      .... Maxiter - #DIIS iter
   Number of Davidson start vectors     ....     2
   Converg. threshold    (grad. norm)   ....   2.000e-06
   Grad. Scal. Fac. for Micro threshold ....   0.100
   Minimum threshold for Micro iter.    ....   1.000e-02
   NR start threshold (gradient norm)   ....   1.000e-04
   Initial trust radius                 ....   0.400
   Minimum AH scaling param. (alpha)    ....   1.000
   Maximum AH scaling param. (alpha)    .... 1000.000
   Quad. conv. algorithm                .... NR
   White noise on init. David. guess    .... on
   Maximum white noise                  ....   0.010
   Pseudo random numbers                .... off
   Inactive MOs                         .... canonical
   Orbital update algorithm             .... Taylor
   Preconditioner                       .... Diag
   Full preconditioner red. dimension   ....   250
 SOSCF                  CNVSOSCF        .... on
   Start iteration      SOSCFMaxIt      ....   150
   Startup grad/error   SOSCFStart      ....  0.003300
   Hessian update       SOSCFHessUp     .... L-BFGS
 Level Shifting         CNVShift        .... on
   Level shift para.    LevelShift      ....    0.2500
   Turn off err/grad.   ShiftErr        ....    0.0010
 Zerner damping         CNVZerner       .... off
 Static damping         CNVDamp         .... on
   Fraction old density DampFac         ....    0.7000
   Max. Damping (<1)    DampMax         ....    0.9800
   Min. Damping (>=0)   DampMin         ....    0.0000
   Turn off err/grad.   DampErr         ....    0.1000

SCF Procedure:
 Maximum # iterations   MaxIter         ....   125
 SCF integral mode      SCFMode         .... Direct
   Integral package                     .... SHARK and LIBINT hybrid scheme
 Reset frequency        DirectResetFreq ....    20
 Integral Threshold     Thresh          ....  1.000e-12 Eh
 Primitive CutOff       TCut            ....  1.000e-14 Eh

Convergence Tolerance:
 Convergence Check Mode ConvCheckMode   .... Total+1el-Energy
 Convergence forced     ConvForced      .... 1
 Energy Change          TolE            ....  1.000e-09 Eh
 1-El. energy change                    ....  1.000e-06 Eh
 Orbital Gradient       TolG            ....  2.000e-06
 Orbital Rotation angle TolX            ....  2.000e-06
 DIIS Error             TolErr          ....  1.000e-08

------------------------------
INITIAL GUESS: MODEL POTENTIAL
------------------------------
Loading Hartree-Fock densities                     ... done
Calculating cut-offs                               ... done
Initializing the effective Hamiltonian             ... done
Setting up the integral package (SHARK)            ... done
Starting the Coulomb interaction                   ... done (   0.0 sec)
Making the grid                                    ... done (   0.0 sec)
Mapping shells                                     ... done
Starting the XC term evaluation                    ... done (   0.0 sec)
Transforming the Hamiltonian                       ... done (   0.0 sec)
Diagonalizing the Hamiltonian                      ... done (   0.0 sec)
Back transforming the eigenvectors                 ... done (   0.0 sec)
Now organizing SCF variables                       ... done
                      ------------------
                      INITIAL GUESS DONE (   0.1 sec)
                      ------------------
             **** ENERGY FILE WAS UPDATED (AR3LD_3.6_4.0_4.4.en.tmp) ****
Finished Guess after   0.1 sec
Maximum memory used throughout the entire GUESS-calculation: 6.6 MB

-------------------------------------------------------------------------------------------
                                      ORCA LEAN-SCF
                              memory conserving SCF solver
-------------------------------------------------------------------------------------------

----------------------------------------D-I-I-S--------------------------------------------
Iteration    Energy (Eh)           Delta-E    RMSDP     MaxDP     DIISErr   Damp  Time(sec)
-------------------------------------------------------------------------------------------
               ***  Starting incremental Fock matrix formation  ***
    1    -1580.3844027416794233     0.00e+00  1.04e-03  1.75e-02  9.29e-02  0.700   0.4
    2    -1580.3894481733348130    -5.05e-03  8.09e-04  1.28e-02  6.66e-02  0.700   0.5
                               ***Turning on AO-DIIS***
    3    -1580.3931051927052067    -3.66e-03  6.43e-04  9.34e-03  4.74e-02  0.700   1.0
    4    -1580.3957298003269898    -2.62e-03  1.58e-03  2.20e-02  3.33e-02  0.000   1.1
                              *** Initializing SOSCF ***
---------------------------------------S-O-S-C-F--------------------------------------
Iteration    Energy (Eh)           Delta-E    RMSDP     MaxDP     MaxGrad    Time(sec)
--------------------------------------------------------------------------------------
    5    -1580.4021138105977116    -6.38e-03  8.20e-05  1.04e-03  1.02e-03     0.8
               *** Restarting incremental Fock matrix formation ***
    6    -1580.4021219076460056    -8.10e-06  4.01e-05  5.53e-04  2.79e-04     0.4
    7    -1580.4021234036831629    -1.50e-06  1.47e-05  1.78e-04  6.42e-05     0.3
    8    -1580.4021234977501535    -9.41e-08  7.80e-07  1.38e-05  7.11e-06     0.3
    9    -1580.4021234981823909    -4.32e-10  1.41e-07  2.23e-06  1.12e-06     0.2
                 **** Energy Check signals convergence ****

               *****************************************************
               *                     SUCCESS                       *
               *           SCF CONVERGED AFTER   9 CYCLES          *
               *****************************************************

             **** ENERGY FILE WAS UPDATED (AR3LD_3.6_4.0_4.4.en.tmp) ****

----------------
TOTAL SCF ENERGY
----------------

Total Energy       :      -1580.40212349818239 Eh          -43004.92811 eV

Components:
Nuclear Repulsion  :        129.45598795775453 Eh            3522.67652 eV
Electronic Energy  :      -1709.85811145593698 Eh          -46527.60463 eV
One Electron Energy:      -2443.51784673160955 Eh          -66491.50097 eV
Two Electron Energy:        733.65973527567257 Eh           19963.89634 eV

Virial components:
Potential Energy   :      -3160.81742616474548 Eh          -86010.21484 eV
Kinetic Energy     :       1580.41530266656309 Eh           43005.28673 eV
Virial Ratio       :          1.99999166094611

---------------
SCF CONVERGENCE
---------------

  Last Energy change         ...    4.3224e-10  Tolerance :   1.0000e-09
  Last MAX-Density change    ...    2.2331e-06  Tolerance :   1.0000e-08
  Last RMS-Density change    ...    1.4084e-07  Tolerance :   1.0000e-09
  Last DIIS Error            ...    1.0190e-03  Tolerance :   1.0000e-08
  Last Orbital Gradient      ...    1.1197e-06  Tolerance :   2.0000e-06
  Last Orbital Rotation      ...    1.2399e-06  Tolerance :   2.0000e-06


----------------
ORBITAL ENERGIES
----------------

  NO   OCC          E(Eh)            E(eV) 
   0   2.0000    -118.610449     -3227.5544 
   1   2.0000    -118.610031     -3227.5430 
   2   2.0000    -118.609928     -3227.5402 
   3   2.0000     -12.322595      -335.3149 
   4   2.0000     -12.322212      -335.3044 
   5   2.0000     -12.322090      -335.3011 
   6   2.0000      -9.571186      -260.4452 
   7   2.0000      -9.571185      -260.4452 
   8   2.0000      -9.571183      -260.4451 
   9   2.0000      -9.570806      -260.4349 
  10   2.0000      -9.570806      -260.4349 
  11   2.0000      -9.570800      -260.4347 
  12   2.0000      -9.570691      -260.4317 
  13   2.0000      -9.570689      -260.4317 
  14   2.0000      -9.570685      -260.4316 
  15   2.0000      -1.279844       -34.8263 
  16   2.0000      -1.278645       -34.7937 
  17   2.0000      -1.277367       -34.7589 
  18   2.0000      -0.602665       -16.3993 
  19   2.0000      -0.597043       -16.2464 
  20   2.0000      -0.593628       -16.1534 
  21   2.0000      -0.593297       -16.1444 
  22   2.0000      -0.591875       -16.1057 
  23   2.0000      -0.590314       -16.0633 
  24   2.0000      -0.589999       -16.0547 
  25   2.0000      -0.587306       -15.9814 
  26   2.0000      -0.581870       -15.8335 
  27   0.0000       0.121262         3.2997 
  28   0.0000       0.126494         3.4421 
  29   0.0000       0.128396         3.4938 
  30   0.0000       0.131508         3.5785 
  31   0.0000       0.161485         4.3942 
  32   0.0000       0.169106         4.6016 
  33   0.0000       0.169426         4.6103 
  34   0.0000       0.175540         4.7767 
  35   0.0000       0.188087         5.1181 
  36   0.0000       0.202600         5.5130 
  37   0.0000       0.272998         7.4287 
*Only the first 10 virtual orbitals were printed.

                    ********************************
                    * MULLIKEN POPULATION ANALYSIS *
                    ********************************

-------------------------
MULLIKEN FRAGMENT CHARGES
-------------------------
 Fragment   0 :  -0.000266
 Fragment   1 :  -0.000155
 Fragment   2 :   0.000421
Sum of fragment charges:   -0.0000000

---------------------------------
MULLIKEN FRAGMENT OVERLAP CHARGES
---------------------------------
                  0          1          2    
      0      17.997752   0.002726   0.002302
      1       0.002726  18.000256  -0.002930
      2       0.002302  -0.002930  17.999893

-----------------------
MULLIKEN ATOMIC CHARGES
-----------------------
   0 Ar:   -0.000266
   1 Ar:   -0.000155
   2 Ar:    0.000421
Sum of atomic charges:   -0.0000000

--------------------------------
MULLIKEN REDUCED ORBITAL CHARGES
--------------------------------
  0 Ars       :     5.999763  s :     5.999763
      pz      :     3.999995  p :    12.000314
      px      :     4.000212
      py      :     4.000107
      dz2     :     0.000042  d :     0.000190
      dxz     :     0.000004
      dyz     :     0.000004
      dx2y2   :     0.000043
      dxy     :     0.000096

  1 Ars       :     5.999257  s :     5.999257
      pz      :     3.999970  p :    12.000594
      px      :     4.000185
      py      :     4.000440
      dz2     :     0.000058  d :     0.000303
      dxz     :     0.000009
      dyz     :     0.000021
      dx2y2   :     0.000089
      dxy     :     0.000126

  2 Ars       :     5.998901  s :     5.998901
      pz      :     3.999961  p :    12.000279
      px      :     4.000322
      py      :     3.999996
      dz2     :     0.000075  d :     0.000400
      dxz     :     0.000011
      dyz     :     0.000025
      dx2y2   :     0.000063
      dxy     :     0.000226



                     *******************************
                     * LOEWDIN POPULATION ANALYSIS *
                     *******************************

------------------------
LOEWDIN FRAGMENT CHARGES
------------------------
 Fragment   0 :   0.000451
 Fragment   1 :   0.000077
 Fragment   2 :  -0.000529

----------------------------
LOEWDIN FRAGMENT BOND ORDERS
----------------------------
                  0          1          2    
      0      17.999549   0.011606   0.029786
      1       0.011606  17.999923   0.065899
      2       0.029786   0.065899  18.000529

----------------------
LOEWDIN ATOMIC CHARGES
----------------------
   0 Ar:    0.000451
   1 Ar:    0.000077
   2 Ar:   -0.000529

-------------------------------
LOEWDIN REDUCED ORBITAL CHARGES
-------------------------------
  0 Ars       :     5.996674  s :     5.996674
      pz      :     3.999987  p :    12.002709
      px      :     4.001454
      py      :     4.001269
      dz2     :     0.000039  d :     0.000165
      dxz     :     0.000001
      dyz     :     0.000000
      dx2y2   :     0.000021
      dxy     :     0.000103

  1 Ars       :     5.992930  s :     5.992930
      pz      :     3.999978  p :    12.006094
      px      :     4.002251
      py      :     4.003865
      dz2     :     0.000218  d :     0.000899
      dxz     :     0.000005
      dyz     :     0.000013
      dx2y2   :     0.000165
      dxy     :     0.000496

  2 Ars       :     5.991457  s :     5.991457
      pz      :     3.999997  p :    12.008056
      px      :     4.001956
      py      :     4.006103
      dz2     :     0.000254  d :     0.001015
      dxz     :     0.000005
      dyz     :     0.000014
      dx2y2   :     0.000156
      dxy     :     0.000586



                      *****************************
                      * MAYER POPULATION ANALYSIS *
                      *****************************

  NA   - Mulliken gross atomic population
  ZA   - Total nuclear charge
  QA   - Mulliken gross atomic charge
  VA   - Mayer's total valence
  BVA  - Mayer's bonded valence
  FA   - Mayer's free valence

  ATOM       NA         ZA         QA         VA         BVA        FA
  0 Ar    18.0003    18.0000    -0.0003     0.0067     0.0067    -0.0000
  1 Ar    18.0002    18.0000    -0.0002     0.0056     0.0056     0.0000
  2 Ar    17.9996    18.0000     0.0004     0.0062     0.0062    -0.0000

  Mayer bond orders larger than 0.100000
  => no bond orders to print

-------
TIMINGS
-------

Total SCF time: 0 days 0 hours 0 min 5 sec 

Total time                  ....       5.023 sec
Sum of individual times     ....       5.011 sec  ( 99.8%)

SCF preparation             ....       0.031 sec  (  0.6%)
Fock matrix formation       ....       4.949 sec  ( 98.5%)
  Startup                   ....       0.001 sec  (  0.0% of F)
  Coulomb+Exchange Fock     ....       4.943 sec  ( 99.9% of F)
Diagonalization             ....       0.000 sec  (  0.0%)
Density matrix formation    ....       0.005 sec  (  0.1%)
Total Energy calculation    ....       0.001 sec  (  0.0%)
Population analysis         ....       0.002 sec  (  0.0%)
Orbital Transformation      ....       0.004 sec  (  0.1%)
Orbital Orthonormalization  ....       0.000 sec  (  0.0%)
DIIS solution               ....       0.017 sec  (  0.3%)
SOSCF solution              ....       0.003 sec  (  0.1%)
Finished LeanSCF after   5.0 sec

Maximum memory used throughout the entire LEANSCF-calculation: 8.6 MB

------------------------------------------------------------------------------
                         ORCA PROPERTY INTEGRAL CALCULATIONS
------------------------------------------------------------------------------

GBWName                                   ... AR3LD_3.6_4.0_4.4.gbw
Number of atoms                           ...      3
Number of basis functions                 ...    150
Max core memory                           ...   1024 MB

Dipole integrals                          ... YES
Quadrupole integrals                      ...  NO
Linear momentum integrals                 ... YES
Angular momentum integrals                ... YES
Higher moments length integrals           ...  NO
Higher moments velocity integrals         ...  NO
Kinetic energy integrals                  ...  NO
GIAO right hand sides                     ...  NO
GIAO dipole derivative integrals          ...  NO
SOC integrals                             ...  NO
EPR diamagnetic integrals (GIAO)          ...  NO
EPR gauge integrals                       ...  NO
Field gradient integrals                  ...  NO (   0 nuclei)
Spin-dipole/Fermi contact integrals       ...  NO (   0 nuclei)
Contact density integrals                 ...  NO (   0 nuclei)
Nucleus-orbit integrals                   ...  NO (   0 nuclei)
Geometric perturbations                   ...  NO (   3 nuclei)

Choice of electric origin   ... Center of mass
Position of electric origin ... (  4.3750,  1.9436,  0.0000) 
Choice of magnetic origin   ... GIAO
Position of magnetic origin ... (  0.0000,  0.0000,  0.0000) 

Calculating integrals                     ... Electric Dipole (Length)     done (  0.0 sec)
Calculating integrals                     ... Linear Momentum              done (  0.0 sec)
Calculating integrals                     ... Angular Momentum  (ElOri)    done (  0.0 sec)

Property integrals calculated in   0.0 sec

Maximum memory used throughout the entire PROPINT-calculation: 6.7 MB


--------------------------------------------------------------------------------
                             ORCA-MATRIX DRIVEN CI
--------------------------------------------------------------------------------


Wavefunction type
-----------------
Correlation treatment                      ...      CCSD     
Single excitations                         ... ON
Orbital optimization                       ... OFF
Calculation of Z vector                    ... OFF
Calculation of Brueckner orbitals          ... OFF
Perturbative triple excitations            ... OFF
Calculation of F12 correction              ... OFF
Frozen core treatment                      ... chemical core (30 el)
Reference Wavefunction                     ... RHF
  Internal Orbitals:    15 ...   26 ( 12 MO's/ 24 electrons)
  Virtual  Orbitals:    27 ...   80 ( 54 MO's              )
Number of AO's                             ...     81
Number of electrons                        ...     54
Number of correlated electrons             ...     24

Algorithmic settings
--------------------
Integral transformation                    ... All integrals via the RI transformation
K(C) Formation                             ... RI-DLPNO
   PNO-Integral Storage                    ... ON DISK
   PNO occupation number cut-off           ... 3.330e-07
   Singles PNO occupation number cut-off   ... 9.990e-09
   PNO Mulliken prescreening cut-off       ... 1.000e-03
   Domain cut-off (Mulliken population)    ... 1.000e-03
   PNO Normalization                       ...    1
Maximum number of iterations               ...        50
Convergence tolerance (max. residuum)      ... 1.000e-06
Level shift for amplitude update           ... 2.000e-01
Maximum number of DIIS vectors             ...         7
DIIS turned on at iteration                ...         0
Damping before turning on DIIS             ...     0.500
Damping after turning on DIIS              ...     0.000
Pair specific amplitude update             ... OFF
Natural orbital iterations                 ... OFF
Perturbative natural orbital generation    ... OFF
Printlevel                                 ... 2

Singles Fock matrix elements calculated using PNOs.

Memory handling:
----------------
Maximum memory for working arrays          ...    512 MB
Data storage in matrix containers          ... UNCOMPRESSED
Data type for integral storage             ... DOUBLE
In-Core Storage of quantities:
   Amplitudes+Sigma Vector      ... NO
   J+K operators                ... NO
   DIIS vectors                 ... NO
   3-external integrals         ... NO
   4-external integrals         ... NO

Localization treatment:
-----------------------
Localization option                        ...    2
Localization threshhold                    ... -1.0e+00
Using relative localization threshhold     ... 1.0e-08
Neglect threshold for strong pairs         ... 1.000e-05 Eh
Prescreening threshold for very weak pairs ... 1.000e-07 Eh
Using randomized seed for localization     ... on

Initializing the integral package          ... done
Localizing the valence orbitals
Localizing the valence orbitals
------------------------------------------------------------------------------
                           ORCA ORBITAL LOCALIZATION
------------------------------------------------------------------------------

Input orbitals are from                  ... AR3LD_3.6_4.0_4.4.proc0.gbw
Output orbitals are to                   ... AR3LD_3.6_4.0_4.4.proc0.loc
Max. number of iterations                ... 128
Localizations seeded randomly            ... on
Convergence tolerance                    ... 2.000e-07
Using relative localization threshhold   ... 1.000e-08
Threshold for strong local MOs           ... 9.500e-01
Threshold for bond MOs                   ... 8.500e-01
Operator                                 ... 0
Orbital range for localization           ... 15 to 26
Localization criterion                   ... FOSTER-BOYS
Doing the dipole integrals     ... o.k.
Entering Jacobi type localization:
Using Cholesky decomposition as initial guess.
Initial value of the localization sum :   230.050420
ITERATION   0 : L=  236.7843601435 DL=  6.73e+00 (MAX-T)=  45.000 
ITERATION   1 : L=  236.7900320779 DL=  5.67e-03 (MAX-T)=   1.994 
ITERATION   2 : L=  236.7900923738 DL=  6.03e-05 (MAX-T)=   0.174 
ITERATION   3 : L=  236.7901581282 DL=  6.58e-05 (MAX-T)=   0.133 
ITERATION   4 : L=  236.7902077025 DL=  4.96e-05 (MAX-T)=   0.150 
ITERATION   5 : L=  236.7902572832 DL=  4.96e-05 (MAX-T)=   0.127 
ITERATION   6 : L=  236.7902999681 DL=  4.27e-05 (MAX-T)=   0.140 
ITERATION   7 : L=  236.7903429836 DL=  4.30e-05 (MAX-T)=   0.157 
ITERATION   8 : L=  236.7903988851 DL=  5.59e-05 (MAX-T)=   0.133 
ITERATION   9 : L=  236.7904440785 DL=  4.52e-05 (MAX-T)=   0.151 
ITERATION  10 : L=  236.7904991552 DL=  5.51e-05 (MAX-T)=   0.147 
ITERATION  11 : L=  236.7905527040 DL=  5.35e-05 (MAX-T)=   0.122 
ITERATION  12 : L=  236.7906066130 DL=  5.39e-05 (MAX-T)=   0.144 
ITERATION  13 : L=  236.7906463456 DL=  3.97e-05 (MAX-T)=   0.145 
ITERATION  14 : L=  236.7906998687 DL=  5.35e-05 (MAX-T)=   0.154 
ITERATION  15 : L=  236.7907510800 DL=  5.12e-05 (MAX-T)=   0.150 
ITERATION  16 : L=  236.7908055447 DL=  5.45e-05 (MAX-T)=   0.151 
ITERATION  17 : L=  236.7908521351 DL=  4.66e-05 (MAX-T)=   0.131 
ITERATION  18 : L=  236.7908990030 DL=  4.69e-05 (MAX-T)=   0.139 
ITERATION  19 : L=  236.7909362195 DL=  3.72e-05 (MAX-T)=   0.125 
ITERATION  20 : L=  236.7909888564 DL=  5.26e-05 (MAX-T)=   0.132 
ITERATION  21 : L=  236.7910446762 DL=  5.58e-05 (MAX-T)=   0.127 
ITERATION  22 : L=  236.7910860033 DL=  4.13e-05 (MAX-T)=   0.136 
ITERATION  23 : L=  236.7911356562 DL=  4.97e-05 (MAX-T)=   0.128 
ITERATION  24 : L=  236.7911777517 DL=  4.21e-05 (MAX-T)=   0.130 
ITERATION  25 : L=  236.7912158919 DL=  3.81e-05 (MAX-T)=   0.119 
ITERATION  26 : L=  236.7912593092 DL=  4.34e-05 (MAX-T)=   0.129 
ITERATION  27 : L=  236.7913088410 DL=  4.95e-05 (MAX-T)=   0.129 
ITERATION  28 : L=  236.7913484454 DL=  3.96e-05 (MAX-T)=   0.113 
ITERATION  29 : L=  236.7913972849 DL=  4.88e-05 (MAX-T)=   0.127 
ITERATION  30 : L=  236.7914383147 DL=  4.10e-05 (MAX-T)=   0.112 
ITERATION  31 : L=  236.7914818866 DL=  4.36e-05 (MAX-T)=   0.133 
ITERATION  32 : L=  236.7915213072 DL=  3.94e-05 (MAX-T)=   0.132 
ITERATION  33 : L=  236.7915727423 DL=  5.14e-05 (MAX-T)=   0.127 
ITERATION  34 : L=  236.7916175138 DL=  4.48e-05 (MAX-T)=   0.122 
ITERATION  35 : L=  236.7916583132 DL=  4.08e-05 (MAX-T)=   0.133 
ITERATION  36 : L=  236.7916999859 DL=  4.17e-05 (MAX-T)=   0.107 
ITERATION  37 : L=  236.7917413959 DL=  4.14e-05 (MAX-T)=   0.123 
ITERATION  38 : L=  236.7917780589 DL=  3.67e-05 (MAX-T)=   0.117 
ITERATION  39 : L=  236.7918223103 DL=  4.43e-05 (MAX-T)=   0.124 
ITERATION  40 : L=  236.7918650729 DL=  4.28e-05 (MAX-T)=   0.124 
ITERATION  41 : L=  236.7919044311 DL=  3.94e-05 (MAX-T)=   0.126 
ITERATION  42 : L=  236.7919477594 DL=  4.33e-05 (MAX-T)=   0.121 
ITERATION  43 : L=  236.7919828662 DL=  3.51e-05 (MAX-T)=   0.106 
ITERATION  44 : L=  236.7920118602 DL=  2.90e-05 (MAX-T)=   0.119 
ITERATION  45 : L=  236.7920536015 DL=  4.17e-05 (MAX-T)=   0.115 
ITERATION  46 : L=  236.7920841336 DL=  3.05e-05 (MAX-T)=   0.114 
ITERATION  47 : L=  236.7921219853 DL=  3.79e-05 (MAX-T)=   0.117 
ITERATION  48 : L=  236.7921572890 DL=  3.53e-05 (MAX-T)=   0.092 
ITERATION  49 : L=  236.7921873786 DL=  3.01e-05 (MAX-T)=   0.117 
ITERATION  50 : L=  236.7922110838 DL=  2.37e-05 (MAX-T)=   0.113 
ITERATION  51 : L=  236.7922445620 DL=  3.35e-05 (MAX-T)=   0.116 
ITERATION  52 : L=  236.7922720792 DL=  2.75e-05 (MAX-T)=   0.116 
ITERATION  53 : L=  236.7923071272 DL=  3.50e-05 (MAX-T)=   0.103 
ITERATION  54 : L=  236.7923400016 DL=  3.29e-05 (MAX-T)=   0.108 
ITERATION  55 : L=  236.7923724278 DL=  3.24e-05 (MAX-T)=   0.104 
ITERATION  56 : L=  236.7924044090 DL=  3.20e-05 (MAX-T)=   0.101 
ITERATION  57 : L=  236.7924341626 DL=  2.98e-05 (MAX-T)=   0.104 
ITERATION  58 : L=  236.7924660755 DL=  3.19e-05 (MAX-T)=   0.096 
ITERATION  59 : L=  236.7924964979 DL=  3.04e-05 (MAX-T)=   0.088 
ITERATION  60 : L=  236.7925296354 DL=  3.31e-05 (MAX-T)=   0.101 
ITERATION  61 : L=  236.7925512225 DL=  2.16e-05 (MAX-T)=   0.102 
ITERATION  62 : L=  236.7925790443 DL=  2.78e-05 (MAX-T)=   0.096 
ITERATION  63 : L=  236.7926086444 DL=  2.96e-05 (MAX-T)=   0.097 
ITERATION  64 : L=  236.7926322776 DL=  2.36e-05 (MAX-T)=   0.114 
ITERATION  65 : L=  236.7926554721 DL=  2.32e-05 (MAX-T)=   0.090 
ITERATION  66 : L=  236.7926809847 DL=  2.55e-05 (MAX-T)=   0.095 
ITERATION  67 : L=  236.7927034773 DL=  2.25e-05 (MAX-T)=   0.094 
ITERATION  68 : L=  236.7927316141 DL=  2.81e-05 (MAX-T)=   0.108 
ITERATION  69 : L=  236.7927587480 DL=  2.71e-05 (MAX-T)=   0.091 
ITERATION  70 : L=  236.7927822039 DL=  2.35e-05 (MAX-T)=   0.102 
ITERATION  71 : L=  236.7928045031 DL=  2.23e-05 (MAX-T)=   0.097 
ITERATION  72 : L=  236.7928274150 DL=  2.29e-05 (MAX-T)=   0.091 
ITERATION  73 : L=  236.7928530683 DL=  2.57e-05 (MAX-T)=   0.105 
ITERATION  74 : L=  236.7928832950 DL=  3.02e-05 (MAX-T)=   0.097 
ITERATION  75 : L=  236.7929059883 DL=  2.27e-05 (MAX-T)=   0.108 
ITERATION  76 : L=  236.7929253828 DL=  1.94e-05 (MAX-T)=   0.085 
ITERATION  77 : L=  236.7929473656 DL=  2.20e-05 (MAX-T)=   0.096 
ITERATION  78 : L=  236.7929719303 DL=  2.46e-05 (MAX-T)=   0.087 
ITERATION  79 : L=  236.7929926833 DL=  2.08e-05 (MAX-T)=   0.083 
ITERATION  80 : L=  236.7930142823 DL=  2.16e-05 (MAX-T)=   0.089 
ITERATION  81 : L=  236.7930355528 DL=  2.13e-05 (MAX-T)=   0.078 
ITERATION  82 : L=  236.7930537307 DL=  1.82e-05 (MAX-T)=   0.086 
ITERATION  83 : L=  236.7930738910 DL=  2.02e-05 (MAX-T)=   0.085 
ITERATION  84 : L=  236.7930936806 DL=  1.98e-05 (MAX-T)=   0.093 
ITERATION  85 : L=  236.7931154425 DL=  2.18e-05 (MAX-T)=   0.089 
ITERATION  86 : L=  236.7931339409 DL=  1.85e-05 (MAX-T)=   0.095 
ITERATION  87 : L=  236.7931547008 DL=  2.08e-05 (MAX-T)=   0.075 
ITERATION  88 : L=  236.7931708169 DL=  1.61e-05 (MAX-T)=   0.076 
ITERATION  89 : L=  236.7931896120 DL=  1.88e-05 (MAX-T)=   0.079 
ITERATION  90 : L=  236.7932059009 DL=  1.63e-05 (MAX-T)=   0.082 
ITERATION  91 : L=  236.7932266405 DL=  2.07e-05 (MAX-T)=   0.087 
ITERATION  92 : L=  236.7932409877 DL=  1.43e-05 (MAX-T)=   0.087 
ITERATION  93 : L=  236.7932565814 DL=  1.56e-05 (MAX-T)=   0.092 
ITERATION  94 : L=  236.7932732697 DL=  1.67e-05 (MAX-T)=   0.085 
ITERATION  95 : L=  236.7932909641 DL=  1.77e-05 (MAX-T)=   0.087 
ITERATION  96 : L=  236.7933049512 DL=  1.40e-05 (MAX-T)=   0.071 
ITERATION  97 : L=  236.7933249457 DL=  2.00e-05 (MAX-T)=   0.084 
ITERATION  98 : L=  236.7933388673 DL=  1.39e-05 (MAX-T)=   0.071 
ITERATION  99 : L=  236.7933535318 DL=  1.47e-05 (MAX-T)=   0.075 
ITERATION 100 : L=  236.7933693690 DL=  1.58e-05 (MAX-T)=   0.071 
ITERATION 101 : L=  236.7933821770 DL=  1.28e-05 (MAX-T)=   0.064 
ITERATION 102 : L=  236.7933989596 DL=  1.68e-05 (MAX-T)=   0.084 
ITERATION 103 : L=  236.7934112595 DL=  1.23e-05 (MAX-T)=   0.071 
ITERATION 104 : L=  236.7934245545 DL=  1.33e-05 (MAX-T)=   0.074 
ITERATION 105 : L=  236.7934376359 DL=  1.31e-05 (MAX-T)=   0.061 
ITERATION 106 : L=  236.7934511474 DL=  1.35e-05 (MAX-T)=   0.073 
ITERATION 107 : L=  236.7934609712 DL=  9.82e-06 (MAX-T)=   0.080 
ITERATION 108 : L=  236.7934774095 DL=  1.64e-05 (MAX-T)=   0.067 
ITERATION 109 : L=  236.7934876548 DL=  1.02e-05 (MAX-T)=   0.072 
ITERATION 110 : L=  236.7935024622 DL=  1.48e-05 (MAX-T)=   0.074 
ITERATION 111 : L=  236.7935147134 DL=  1.23e-05 (MAX-T)=   0.065 
ITERATION 112 : L=  236.7935262336 DL=  1.15e-05 (MAX-T)=   0.065 
ITERATION 113 : L=  236.7935387957 DL=  1.26e-05 (MAX-T)=   0.081 
ITERATION 114 : L=  236.7935497277 DL=  1.09e-05 (MAX-T)=   0.070 
ITERATION 115 : L=  236.7935609522 DL=  1.12e-05 (MAX-T)=   0.062 
ITERATION 116 : L=  236.7935722053 DL=  1.13e-05 (MAX-T)=   0.066 
ITERATION 117 : L=  236.7935851298 DL=  1.29e-05 (MAX-T)=   0.065 
ITERATION 118 : L=  236.7935940901 DL=  8.96e-06 (MAX-T)=   0.054 
ITERATION 119 : L=  236.7936031560 DL=  9.07e-06 (MAX-T)=   0.068 
ITERATION 120 : L=  236.7936126112 DL=  9.46e-06 (MAX-T)=   0.060 
ITERATION 121 : L=  236.7936228239 DL=  1.02e-05 (MAX-T)=   0.065 
ITERATION 122 : L=  236.7936343181 DL=  1.15e-05 (MAX-T)=   0.067 
ITERATION 123 : L=  236.7936448922 DL=  1.06e-05 (MAX-T)=   0.073 
ITERATION 124 : L=  236.7936533548 DL=  8.46e-06 (MAX-T)=   0.067 
ITERATION 125 : L=  236.7936644747 DL=  1.11e-05 (MAX-T)=   0.069 
ITERATION 126 : L=  236.7936741526 DL=  9.68e-06 (MAX-T)=   0.056 
ITERATION 127 : L=  236.7936854909 DL=  1.13e-05 (MAX-T)=   0.061 
MAXIMUM NO OF ITERATIONS EXCEEDED - LOCALIZATION NOT CONVERGED


--------------------------------------------------------------------------------
                    LOCALIZED MOLECULAR ORBITAL COMPOSITIONS
--------------------------------------------------------------------------------

The Mulliken populations for each LMO on each atom are computed
The LMO`s will be ordered according to atom index and type
  (A) Strongly localized MO`s have populations of >=0.950 on one atom
  (B) Two center bond orbitals have populations of >=0.850 on two atoms
  (C) Other MO`s are considered to be `delocalized`

FOUND  -  12 strongly local MO`s
       -   0 two center bond MO`s
       -   0 significantly delocalized MO`s

Rather strongly localized orbitals:
MO  26:   2Ar -   0.999599
MO  25:   2Ar -   0.999873
MO  24:   2Ar -   0.999786
MO  23:   2Ar -   1.000166
MO  22:   1Ar -   0.999878
MO  21:   1Ar -   0.999672
MO  20:   1Ar -   0.999825
MO  19:   1Ar -   1.000225
MO  18:   0Ar -   0.999601
MO  17:   0Ar -   0.999994
MO  16:   0Ar -   0.999856
MO  15:   0Ar -   0.999833
Localized MO's were stored in: AR3LD_3.6_4.0_4.4.proc0.loc

Localizing the core orbitals
Localization sum:   288.046034786 
------------------------------------------------------------------------------
                           ORCA ORBITAL LOCALIZATION
------------------------------------------------------------------------------

Input orbitals are from                  ... AR3LD_3.6_4.0_4.4.proc0.loc
Output orbitals are to                   ... AR3LD_3.6_4.0_4.4.proc0.loc
Max. number of iterations                ... 128
Localizations seeded randomly            ... on
Convergence tolerance                    ... 2.000e-07
Using relative localization threshhold   ... 1.000e-08
Threshold for strong local MOs           ... 9.500e-01
Threshold for bond MOs                   ... 8.500e-01
Operator                                 ... 0
Orbital range for localization           ... 0 to 14
Localization criterion                   ... FOSTER-BOYS
Doing the dipole integrals     ... o.k.
Entering Jacobi type localization:
Using Cholesky decomposition as initial guess.
Initial value of the localization sum :   287.589571
ITERATION   0 : L=  288.0434116588 DL=  4.54e-01 (MAX-T)=  45.000 
ITERATION   1 : L=  288.0460258187 DL=  2.61e-03 (MAX-T)=   6.101 
ITERATION   2 : L=  288.0460347018 DL=  8.88e-06 (MAX-T)=   0.433 
ITERATION   3 : L=  288.0460347855 DL=  8.38e-08 (MAX-T)=   0.047 
LOCALIZATION SUM CONVERGED


--------------------------------------------------------------------------------
                    LOCALIZED MOLECULAR ORBITAL COMPOSITIONS
--------------------------------------------------------------------------------

The Mulliken populations for each LMO on each atom are computed
The LMO`s will be ordered according to atom index and type
  (A) Strongly localized MO`s have populations of >=0.950 on one atom
  (B) Two center bond orbitals have populations of >=0.850 on two atoms
  (C) Other MO`s are considered to be `delocalized`

FOUND  -  15 strongly local MO`s
       -   0 two center bond MO`s
       -   0 significantly delocalized MO`s

Rather strongly localized orbitals:
MO  14:   2Ar -   1.000017
MO  13:   2Ar -   1.000012
MO  12:   2Ar -   1.000014
MO  11:   2Ar -   1.000000
MO  10:   2Ar -   1.000010
MO   9:   1Ar -   1.000000
MO   8:   1Ar -   1.000010
MO   7:   1Ar -   1.000008
MO   6:   1Ar -   1.000014
MO   5:   1Ar -   1.000009
MO   4:   0Ar -   1.000006
MO   3:   0Ar -   1.000007
MO   2:   0Ar -   1.000004
MO   1:   0Ar -   1.000000
MO   0:   0Ar -   1.000005
Localized MO's were stored in: AR3LD_3.6_4.0_4.4.proc0.loc

Warning: reference  - re-canonicalizations have been set to INT 1 VIRT 1
Warning: internal orbitals are localized - no re-canonicalization of internal orbitals
Warning: UsePNO is turned on - no re-canonicalization of internal and virtual orbitals
Fock densities were made 
Making Fock matrix and reference energy:

--------------------------
CLOSED-SHELL FOCK OPERATOR
--------------------------

Time needed for Fock operator              ...            0.566 sec
Reference energy                           ...  -1580.402123498

--------------
DLPNO SETTINGS (2015 fully linear scaling implementation)
--------------

TCutMKN:           1.000e-03
TCutPAO:           1.000e-03
TCutPNO:           3.330e-07
TCutPNOSingles:    9.990e-09
TCutEN:            9.700e-01
TCutPAOExt:        1.000e-01
TCutPairs:         1.000e-05
TCutPre:           1.000e-07
TCutOSV:           1.000e-06
TCutDOij:          1.000e-05
TCutDO:            1.000e-02
TCutC:             1.000e-04
TCutCPAO:          1.000e-03
TCutCMO:           1.000e-03
TScaleDOMP2PreScr: 2.000e+00
TScaleMKNMP2PreScr:1.000e+01
TScalePNOMP2PreScr:1.000e+00
PAO overlap thresh 1.000e-08
Using PNOs for Singles Fock computation
Use new domains
Use fully linear algorithm

--------------------------
Mulliken population of the LMOs            ... ok
Performing proximity check                 ... No problems found
Calculating differential overlap integrals ... ok

------------------------
PRESCREENING OF HF PAIRS
------------------------

   .... Finished loop over pairs

                  ============================================
                    30 of   78 PAIRS WERE SKIPPED as HF PAIRS
                  ============================================

Total time spent in skipping HF pairs                 ...     0.000 sec
--------------------------
ELECTRON PAIR PRESCREENING
--------------------------

Dipole-based pair screening          .... used

   TCutDOij = 1.000000e-05
   TCutPre  = 1.000000e-07
   .... Finished loop over pairs
Total time spent in the prescreening                  ...     0.000 sec
sum of pair energies estimated for screened out pairs ...       0.000000000000 Eh
Thresholds for map construction and integral transformation for crude MP2:
   TCutMKN                    ...     1.0e-02
   TCutDO                     ...     2.0e-02
   TCutPairs                  ...     1.0e-05
   TCutPNO_CrudeMP2           ...     3.3e-07
   TCutPNOSingles_CrudeMP2    ...     1.0e-08
--------------------------------
LOCAL RI TRANSFORMATION (IAVPAO)
--------------------------------

Orbital window:      15 to 26
Number of PAOs:      81
Basis functions:     81 (33 shells)
Aux. functions:     276 (84 shells)
Use SHARK:           on
Have SHARK:         yes

Processing maps (0.0 sec)
Average map sizes:
   Aux shells -> MOs              12.0
   Aux shells -> PAOs             81.0
   MOs        -> AO shells        30.2
   PAOs       -> AO shells        33.0

Calculating integrals (0.1 sec, 2.050 MB)
Sorting integrals (0.0 sec, 2.047 MB)
Total time for the integral transformation: 0.1 sec
--------------------------------
INITIAL GUESS AND PNO GENERATION
--------------------------------

Populations of internal orbitals onto Fragments:
  15:      1.000    0.000    0.000  assigned to fragment   1
  16:      1.000    0.000    0.000  assigned to fragment   1
  17:      1.000    0.000    0.000  assigned to fragment   1
  18:      1.000    0.000    0.000  assigned to fragment   1
  19:      0.000    1.000    0.000  assigned to fragment   2
  20:      0.000    1.000    0.000  assigned to fragment   2
  21:      0.000    1.000    0.000  assigned to fragment   2
  22:      0.000    1.000    0.000  assigned to fragment   2
  23:      0.000    0.000    1.000  assigned to fragment   3
  24:      0.000    0.000    1.000  assigned to fragment   3
  25:      0.000    0.000    1.000  assigned to fragment   3
  26:      0.000    0.000    1.000  assigned to fragment   3

Summary assignment:
   4 orbitals assigned to fragment   1
   4 orbitals assigned to fragment   2
   4 orbitals assigned to fragment   3

PNO truncation parameters                   .... 
    PAOOverlapThresh   =        1.000e-08

Pair selection                          .... 
  modified with fragment specific keywords
  Pairs will be selected according to these
  intra(inter)fragment cutoffs
  1 <-> 1
    Intrafragment pairs 1 <-> 1 neglected for CCSD
  1 <-> 2
    TCutPairs          =        1.000e-05
    TCutPNO            =        3.330e-07
    TCutMKN            =        1.000e-02
    TCutDO             =        2.000e-02
    TCutPNOSingles     =        9.990e-09
    TCutMP2Pairs       =        1.000e-06
  1 <-> 3
    TCutPairs          =        1.000e-05
    TCutPNO            =        3.330e-07
    TCutMKN            =        1.000e-02
    TCutDO             =        2.000e-02
    TCutPNOSingles     =        9.990e-09
    TCutMP2Pairs       =        1.000e-06
  2 <-> 2
    Intrafragment pairs 2 <-> 2 neglected for CCSD
  2 <-> 3
    TCutPairs          =        1.000e-05
    TCutPNO            =        3.330e-07
    TCutMKN            =        1.000e-02
    TCutDO             =        2.000e-02
    TCutPNOSingles     =        9.990e-09
    TCutMP2Pairs       =        1.000e-06
  3 <-> 3
    Intrafragment pairs 3 <-> 3 neglected for CCSD

Type of local MP2 treatment                 .... semi-local MP2
Strategy for PNO selection                  .... occupation number selection
Pair density normalization                  .... MP2 norm
Spin component scaling                      .... not used

   .... Finished loop over pairs
Making pair pair interaction lists          ... done

                       ===========================
                         41 OF   60 PAIRS ARE KEPT CCSD PAIRS
                          7 OF   60 PAIRS ARE KEPT MP2 PAIRS
                         12 OF   60 PAIRS ARE SKIPPED
                       ===========================

Total time spent in the initial guess                 ...     0.166 sec
SL-MP2 correlation energy (all non-screened pairs)    ...      -0.001432905992 Eh

Initial PNO correlation energy                        ...      -0.001339051944 Eh
sum of pair energies prescreened and skipped MP2 pairs...       0.000000000000 Eh
sum of pair energies of crude MP2 skipped pairs only  ...       0.000000000000 Eh
sum of MP2 pair energies for pairs that were not kept ...      -0.000059551869 Eh
sum of PNO error estimates for the kept pairs         ...      -0.000034302180 Eh
                                                          --------------------
sum of all corrections                                         -0.000093854049
Initial total correlation energy                               -0.001432905992
Thresholds for map construction and integral transformation for fine MP2 and CCSD(T) calculation:
   TCutMKN   ...     1.0e-03
   TCutDO    ...     1.0e-02
   TCutPairs ...     1.0e-05
   TCutCMO   ...     1.0e-03
   TCutCPAO  ...     1.0e-03

--------------------------------
LOCAL RI TRANSFORMATION (IAVPAO)
--------------------------------

Orbital window:      15 to 26
Number of PAOs:      81
Basis functions:     81 (33 shells)
Aux. functions:     276 (84 shells)
Use SHARK:           on
Have SHARK:         yes

Processing maps (0.0 sec)
Average map sizes:
   Aux shells -> MOs              12.0
   Aux shells -> PAOs             81.0
   MOs        -> AO shells        30.2
   PAOs       -> AO shells        33.0

Calculating integrals (0.1 sec, 2.050 MB)
Sorting integrals (0.0 sec, 2.047 MB)
Total time for the integral transformation: 0.1 sec
--------------------------------
INITIAL GUESS AND PNO GENERATION
--------------------------------

Populations of internal orbitals onto Fragments:
  15:      1.000    0.000    0.000  assigned to fragment   1
  16:      1.000    0.000    0.000  assigned to fragment   1
  17:      1.000    0.000    0.000  assigned to fragment   1
  18:      1.000    0.000    0.000  assigned to fragment   1
  19:      0.000    1.000    0.000  assigned to fragment   2
  20:      0.000    1.000    0.000  assigned to fragment   2
  21:      0.000    1.000    0.000  assigned to fragment   2
  22:      0.000    1.000    0.000  assigned to fragment   2
  23:      0.000    0.000    1.000  assigned to fragment   3
  24:      0.000    0.000    1.000  assigned to fragment   3
  25:      0.000    0.000    1.000  assigned to fragment   3
  26:      0.000    0.000    1.000  assigned to fragment   3

Summary assignment:
   4 orbitals assigned to fragment   1
   4 orbitals assigned to fragment   2
   4 orbitals assigned to fragment   3

PNO truncation parameters                   .... 
    PAOOverlapThresh   =        1.000e-08

Pair selection                          .... 
  modified with fragment specific keywords
  Pairs will be selected according to these
  intra(inter)fragment cutoffs
  1 <-> 1
    Intrafragment pairs 1 <-> 1 neglected for CCSD
  1 <-> 2
    TCutPairs          =        1.000e-05
    TCutPNO            =        3.330e-07
    TCutMKN            =        1.000e-03
    TCutDO             =        1.000e-02
    TCutPNOSingles     =        9.990e-09
    TCutMP2Pairs       =        1.000e-06
  1 <-> 3
    TCutPairs          =        1.000e-05
    TCutPNO            =        3.330e-07
    TCutMKN            =        1.000e-03
    TCutDO             =        1.000e-02
    TCutPNOSingles     =        9.990e-09
    TCutMP2Pairs       =        1.000e-06
  2 <-> 2
    Intrafragment pairs 2 <-> 2 neglected for CCSD
  2 <-> 3
    TCutPairs          =        1.000e-05
    TCutPNO            =        3.330e-07
    TCutMKN            =        1.000e-03
    TCutDO             =        1.000e-02
    TCutPNOSingles     =        9.990e-09
    TCutMP2Pairs       =        1.000e-06
  3 <-> 3
    Intrafragment pairs 3 <-> 3 neglected for CCSD

Type of local MP2 treatment                 .... semi-local MP2
Strategy for PNO selection                  .... occupation number selection
Pair density normalization                  .... MP2 norm
Spin component scaling                      .... not used

   .... Finished loop over pairs

 PNO Occupation Number Statistics: 
  | Av. % of trace(Dij) retained        ...  98.563456806459
  | sigma^2 in % of trace(Dij) retained ...   3.05e-01
  | Av. % of trace(Di) retained         ...  99.999931490915
  | sigma^2 in % of trace(Di) retained  ...   2.53e-09
 Distributions of % trace(Dij) recovered:
  |   [90.0, 99.0) ...    30 ( 73.2 % of all pairs)
  |   [99.0, 99.9) ...    11 ( 26.8 % of all pairs)
 Distributions of % trace(Di) recovered :
  |       >= 99.9  ...    12 (100.0 % of all I-pairs )

Making pair pair interaction lists          ... done

                       ===========================
                         41 OF   60 PAIRS ARE KEPT
                       ===========================

Total time spent in the initial guess                 ...     0.195 sec
SL-MP2 correlation energy (all non-screened pairs)    ...      -0.001432912737 Eh

Initial PNO correlation energy                        ...      -0.001339055277 Eh
sum of pair energies estimated for screened out pairs ...       0.000000000000 Eh
sum of MP2 pair energies for pairs that were not kept ...      -0.000059555048 Eh
sum of PNO error estimates for the kept pairs         ...      -0.000034302411 Eh
                                                          --------------------
sum of all corrections                                         -0.000093857460
Initial total correlation energy                               -0.001432912737
Thresholds for map construction and integral transformation for fine MP2 and CCSD(T) calculation:
   TCutMKN   ...     1.0e-03
   TCutDO    ...     1.0e-02
   TCutPairs ...     1.0e-05
   TCutCMO   ...     1.0e-03
   TCutCPAO  ...     1.0e-03

Time for aux screen maps:            0.000
Time for maps after fine MP2:            0.001
-----------------------------
LOCAL RI TRANSFORMATION (IJV)
-----------------------------

Orbital window:      15 to 26
Basis functions:     81 (33 shells)
Aux. functions:     276 (84 shells)
Use SHARK:           on

Processing maps (0.0 sec)
Average map sizes:
   Aux shells -> MOs(i)           12.0
   Aux shells -> MOs(j)           12.0
   MOs        -> AO shells        30.2

Calculating integrals NOTE: Switching SHARK to General Contraction for MDCI
      If that is not desired please turn off the PGCFlag in the input (%shark PGCFlag 0 end)
(0.5 sec, 0.306 MB)
Sorting integrals (0.0 sec, 0.303 MB)
Total time for the integral transformation: 0.5 sec
--------------------------------
LOCAL RI TRANSFORMATION (VABPAO)
--------------------------------

Number of PAOs:      81
Basis functions:     81 (33 shells)
Aux. functions:     276 (84 shells)
Use SHARK:           on

Processing maps (0.0 sec)
Average map sizes:
   Aux shells -> PAOs             81.0
   PAOs       -> AO shells        33.0

Calculating integrals NOTE: Switching SHARK to General Contraction for MDCI
      If that is not desired please turn off the PGCFlag in the input (%shark PGCFlag 0 end)
(1.2 sec, 13.819 MB)
Finished


-------------------------------------
Pair Pair Term precalculation with     
RI-(ij|mn) and (im|jn) transformation  
ON THE FLY                             
-------------------------------------

   IBatch   1 (of   1)              ... done (    0.680 sec)
Total EXT                           ...           0.680 sec

IAVPA Available = YES
VABPAO Available= YES
IJV Available   = YES
IJK Available   = NO
PNO3i Available = YES
PNO3j Available = YES
PNO4 Available  = YES
---------------------
RI-PNO TRANSFORMATION
---------------------

Total Number of PNOs                   ...   258
Average number of PNOs per pair        ...     6
Maximal number of PNOs per pair        ...     8
   #pairs with  1 -  5 PNOs   :    0
   #pairs with  6 - 10 PNOs   :   41
   #pairs with 11 - 15 PNOs   :    0
   #pairs with 16 - 20 PNOs   :    0
   #pairs with 21 - 25 PNOs   :    0
   #pairs with 26 - 30 PNOs   :    0
   #pairs with 31 - 35 PNOs   :    0
   #pairs with 36 - 40 PNOs   :    0
   #pairs with 41 - 45 PNOs   :    0
   #pairs with 46 - 50 PNOs   :    0

Generation of (ij|ab)[P] integrals            ... on
Generation of (ia|bc)[P],(ja|bc)[P] integrals ... on
Storage of 3 and 4 external integrals         ... on
Generation of ALL (ka|bc)[P] integrals        ... on
Keep RI integrals in memory                   ... off

Ibatch:  1 (of  1)
Starting 2-4 index PNO integral generation ... done

Timings:
Total PNO integral transformation time     ...          0.582 sec
Size of the 3-external file                ...         0 MB
Size of the 4-external file                ...         0 MB
Size of the IKJL file                      ...         0 MB
Size of the all 3-external file            ...         0 MB
Size of the 1-external file                ...         0 MB

Making pair/pair overlap matrices          ... done (    0.135 sec)
Size of the pair overlap file              ... 0 MB
Redoing the guess amplitudes               ... done (    0.000 sec)

-------------------------
FINAL STARTUP INFORMATION
-------------------------

E(0)                                       ...  -1580.402123498
E(SL-MP2)                                  ...     -0.001432913
E(SL-MP2) including corrections            ...     -0.001432913
Initial E(tot)                             ...  -1580.403556411
<T|T>                                      ...      0.000517592
Number of pairs included                   ... 41
Total number of pairs                      ... 78

------------------------------------------------
                  RHF COUPLED CLUSTER ITERATIONS
------------------------------------------------

Number of PNO amplitudes to be optimized   ...         1634
Number of non-PNO amplitudes               ...       119556
Untruncated number of regular amplitudes   ...       227448

Iter       E(tot)           E(Corr)          Delta-E          Residual     Time
  0  -1580.403556300     -0.001338944      0.000093968      0.000309177    0.22
                           *** Turning on DIIS ***
  1  -1580.403523484     -0.001306128      0.000032816      0.000070088    0.21
  2  -1580.403526781     -0.001309425     -0.000003297      0.000022321    0.18
  3  -1580.403527038     -0.001309683     -0.000000258      0.000006306    0.15
  4  -1580.403527102     -0.001309747     -0.000000064      0.000000658    0.14
               --- The Coupled-Cluster iterations have converged ---

----------------------
COUPLED CLUSTER ENERGY
----------------------

E(0)                                       ...  -1580.402123498
E(CORR)(strong-pairs)                      ...     -0.001309747
E(CORR)(weak-pairs)                        ...     -0.000093857
E(CORR)(corrected)                         ...     -0.001403604
E(TOT)                                     ...  -1580.403527102
Singles Norm <S|S>**1/2                    ...      0.000754424  
T1 diagnostic                              ...      0.000153996  

------------------
LARGEST AMPLITUDES
------------------
  23-> 27  19-> 27       0.001386
  26-> 27  18-> 27       0.001233
  26-> 27  19-> 27       0.001169
  26-> 32  19-> 27       0.001128
  23-> 27  22-> 27       0.001124
  26-> 27  18-> 32       0.001123
  23-> 27  22-> 32       0.001082
  23-> 27  19-> 30       0.001071
  23-> 27  21-> 32       0.001060
  25-> 32  19-> 27       0.001047
  23-> 30  19-> 27       0.001039
  26-> 27  17-> 27       0.001016
  25-> 27  19-> 27       0.000997
  23-> 27  21-> 27       0.000978
  23-> 27  20-> 32       0.000954
  24-> 32  19-> 27       0.000944


 ===========================================================
         LOCAL ENERGY DECOMPOSITION FOR DLPNO-CC METHODS
 ===========================================================

Maximum Iterations for the Localization .. 600
Tolerance for the Localization          ..  1.00e-06
Number of fragments = 3
Fragment  1:  0
Fragment  2:  1
Fragment  3:  2

Populations of internal orbitals onto Fragments:
   0:      1.000    0.000    0.000  assigned to fragment   1
   1:      1.000    0.000    0.000  assigned to fragment   1
   2:      1.000    0.000    0.000  assigned to fragment   1
   3:      1.000    0.000    0.000  assigned to fragment   1
   4:      1.000    0.000    0.000  assigned to fragment   1
   5:      0.000    1.000    0.000  assigned to fragment   2
   6:      0.000    1.000    0.000  assigned to fragment   2
   7:      0.000    1.000    0.000  assigned to fragment   2
   8:      0.000    1.000    0.000  assigned to fragment   2
   9:      0.000    1.000    0.000  assigned to fragment   2
  10:      0.000    0.000    1.000  assigned to fragment   3
  11:      0.000    0.000    1.000  assigned to fragment   3
  12:      0.000    0.000    1.000  assigned to fragment   3
  13:      0.000    0.000    1.000  assigned to fragment   3
  14:      0.000    0.000    1.000  assigned to fragment   3
  15:      1.000    0.000    0.000  assigned to fragment   1
  16:      1.000    0.000    0.000  assigned to fragment   1
  17:      1.000    0.000    0.000  assigned to fragment   1
  18:      1.000    0.000    0.000  assigned to fragment   1
  19:      0.000    1.000    0.000  assigned to fragment   2
  20:      0.000    1.000    0.000  assigned to fragment   2
  21:      0.000    1.000    0.000  assigned to fragment   2
  22:      0.000    1.000    0.000  assigned to fragment   2
  23:      0.000    0.000    1.000  assigned to fragment   3
  24:      0.000    0.000    1.000  assigned to fragment   3
  25:      0.000    0.000    1.000  assigned to fragment   3
  26:      0.000    0.000    1.000  assigned to fragment   3

Summary assignment:
   9 orbitals assigned to fragment   1
   9 orbitals assigned to fragment   2
   9 orbitals assigned to fragment   3


--------------------------------
CORRELATION ENERGY DECOMPOSITION
--------------------------------


--------------------------------------------------
INTER- vs INTRA-FRAGMENT CORRELATION ENERGIES (Eh)
--------------------------------------------------

                                   Fragment   1            Fragment   2            Fragment   3            
                         ----------------------  ----------------------  ----------------------  
Intra strong pairs               0.000000000000         0.000000000000         0.000000000000  sum=        0.000000000000
Intra weak pairs                 0.000000000000         0.000000000000         0.000000000000  sum=        0.000000000000
Singles contribution             0.000000000026         0.000000000063         0.000000000075  sum=        0.000000000165
                         ----------------------  ----------------------  ----------------------  
                                 0.000000000026         0.000000000063         0.000000000075  sum=        0.000000000165


Interaction correlation for Fragments   2 and   1:
--------------------------------------------------
Inter strong pairs               -0.000150218602 (   -0.094 kcal/mol)
Inter weak pairs                 -0.000061530602 (   -0.039 kcal/mol)
                          ----------------------
Total interaction                -0.000211749204 (   -0.133 kcal/mol)

Interaction correlation for Fragments   3 and   1:
--------------------------------------------------
Inter strong pairs               -0.000396322292 (   -0.249 kcal/mol)
Inter weak pairs                 -0.000008984319 (   -0.006 kcal/mol)
                          ----------------------
Total interaction                -0.000405306612 (   -0.254 kcal/mol)
Interaction correlation for Fragments   3 and   2:
--------------------------------------------------
Inter strong pairs               -0.000763205849 (   -0.479 kcal/mol)
Inter weak pairs                 -0.000023342539 (   -0.015 kcal/mol)
                          ----------------------
Total interaction                -0.000786548388 (   -0.494 kcal/mol)



Sum of INTRA-fragment correlation energies  =         0.000000000165
Sum of INTER-fragment correlation energies  =        -0.001403604204
                                              ---------------------
Total correlation energy                    =        -0.001403604039

---------------------------------------------
DECOMPOSITION OF CCSD STRONG PAIRS INTO      
    DOUBLE EXCITATION TYPES (Eh)             
---------------------------------------------

Foster-Boys localization is used for localizing PNOs

Intra fragment contributions: 
INTRA Fragment 1                        0.000000000 
INTRA Fragment 2                        0.000000000 
INTRA Fragment 3                        0.000000000 

Charge transfer contributions: 
Charge Transfer 1 to 2                 -0.000000297 
Charge Transfer 1 to 3                 -0.000001181 
Charge Transfer 2 to 1                 -0.000000315 
Charge Transfer 2 to 3                 -0.000021015 
Charge Transfer 3 to 1                 -0.000007557 
Charge Transfer 3 to 2                 -0.000025014 

Dispersion contributions: 
Dispersion  2,1                        -0.000149607 
Dispersion  3,1                        -0.000387584 
Dispersion  3,2                        -0.000717176 

Singles contributions:                   
Singles energy                          0.000000000 
 
Delocalized contributions: 
Delocalized correlation                 0.000000000 

#Time for LED analysis ..       0.0 (sec)



--------------------------------------------------------------------------------
                                    TIMINGS
--------------------------------------------------------------------------------


Total execution time                   ...        5.662 sec

Localization of occupied MO's          ...        0.075 sec (  1.3%)
Fock Matrix Formation                  ...        0.566 sec ( 10.0%)
Global overlap, Fock, MKN matrices     ...        0.093 sec (  1.6%)
Differential overlap integrals         ...        0.147 sec (  2.6%)
Organizing maps                        ...        0.002 sec (  0.0%)
RI 3-index integral generations        ...        1.895 sec ( 33.5%)
RI-PNO integral transformation         ...        1.402 sec ( 24.8%)
Initial Guess                          ...        0.366 sec (  6.5%)
DIIS Solver                            ...        0.011 sec (  0.2%)
State Vector Update                    ...        0.000 sec (  0.0%)
Sigma-vector construction              ...        0.888 sec ( 15.7%)
  <D|H|D>(0-ext)                       ...        0.111 sec ( 12.5% of sigma)
  <D|H|D>(2-ext Fock)                  ...        0.002 sec (  0.2% of sigma)
  <D|H|D>(2-ext)                       ...        0.156 sec ( 17.6% of sigma)
  <D|H|D>(4-ext)                       ...        0.006 sec (  0.7% of sigma)
  <D|H|D>(4-ext-corr)                  ...        0.017 sec (  1.9% of sigma)
  CCSD doubles correction              ...        0.023 sec (  2.6% of sigma)
  <S|H|S>                              ...        0.075 sec (  8.5% of sigma)
  <S|H|D>(1-ext)                       ...        0.069 sec (  7.7% of sigma)
  <D|H|S>(1-ext)                       ...        0.002 sec (  0.2% of sigma)
  <S|H|D>(3-ext)                       ...        0.008 sec (  0.9% of sigma)
  Fock-dressing                        ...        0.263 sec ( 29.7% of sigma)
  Singles amplitudes                   ...        0.014 sec (  1.5% of sigma)
  (ik|jl)-dressing                     ...        0.072 sec (  8.1% of sigma)
  (ij|ab),(ia|jb)-dressing             ...        0.056 sec (  6.3% of sigma)
Local Energy Decomposition             ...        0.040 sec (  0.7% of ALL)


Maximum memory used throughout the entire MDCI-calculation: 53.8 MB
----------------------------   ----------------
Inter-fragment dispersion       -0.001348225
----------------------------   ----------------


-------------------------   --------------------
FINAL SINGLE POINT ENERGY     -1580.403471723122 
-------------------------   --------------------


------------------------------------------------------------------------------
                              ORCA PROPERTY CALCULATIONS
------------------------------------------------------------------------------

GBWName                                 ... AR3LD_3.6_4.0_4.4.gbw
Number of atoms                         ...      3
Number of basis functions               ...    150
Max core memory                         ...   1024 MB

Electric properties:
Dipole moment                           ... YES
Quadrupole moment                       ...  NO
Static polarizability (Dipole/Dipole)   ...  NO
Static polarizability (Dipole/Quad.)    ...  NO
Static polarizability (Quad./Quad.)     ...  NO
Static polarizability (Velocity)        ...  NO

Atomic electric properties:
Dipole moment                           ...  NO
Quadrupole moment                       ...  NO
Static polarizability                   ...  NO

Choice of electric origin               ... Center of mass
Position of electric origin             ...     4.375002     1.943619     0.000000

General magnetic properties:
Magnetizability                         ...  NO

EPR properties:
g-Tensor (aka g-matrix)                 ...  NO
Zero-Field splitting spin-orbit         ...  NO
Zero-field splitting spin-spin          ...  NO
Hyperfine couplings                     ...  NO (   0 nuclei)
Quadrupole couplings                    ...  NO (   0 nuclei)
Contact density                         ...  NO (   0 nuclei)

NMR properties:
Chemical shifts                         ...  NO (   0 nuclei)
Spin-rotation constants                 ...  NO (   0 nuclei)
Spin-spin couplings                     ...  NO (   0 nuclei,    0 pairs)

Choice of magnetic origin               ... GIAO
Position of magnetic origin             ...     0.000000     0.000000     0.000000

Properties with geometric perturbations:
SCF Hessian                             ...  NO
IR spectrum                             ...  NO
VCD spectrum                            ...  NO
X-ray spectroscopy properties:
SCF XES/XAS/RIXS spectra                ...  NO


-------------
DIPOLE MOMENT
-------------

Method             : SCF
Type of density    : Electron Density
Multiplicity       :   1
Irrep              :   0
Energy             : -1580.4021234981823909 Eh
Relativity type    : 
Basis              : AO
                                X                 Y                 Z
Electronic contribution:     -0.000173513       0.000114037       0.000000000
Nuclear contribution   :      0.000000000      -0.000000000       0.000000000
                        -----------------------------------------
Total Dipole Moment    :     -0.000173513       0.000114037       0.000000000
                        -----------------------------------------
Magnitude (a.u.)       :      0.000207632
Magnitude (Debye)      :      0.000527759



--------------------
Rotational spectrum 
--------------------
 
Rotational constants in cm-1:             0.068008             0.042618             0.026200 
Rotational constants in MHz :          2038.814807          1277.662474           785.447012 

Dipole components along the rotational axes: 
x,y,z [a.u.] :     0.000148     0.000146     0.000000 
x,y,z [Debye]:     0.000376     0.000371     0.000000 

 

Dipole moment calculation done in   0.0 sec 

Maximum memory used throughout the entire PROP-calculation: 6.8 MB

--------------------------------
SUGGESTED CITATIONS FOR THIS RUN
--------------------------------

Below you find a list of papers that are relevant to this ORCA run
We neither can nor want to force you to cite these papers, but we appreciate if you do
You receive ORCA, which is the product of decades of hard work by many enthusiastic individuals, for free
The only thing we kindly ask in return is that you cite our papers,
We deeply appreciate it, if you show your appreciation for ORCA by not just citing the generic ORCA reference.

Please note that relegating all ORCA citations to the supporting information does *not* help us.
SI sections are not indexed - citations you put there will not count into any citation statistics
But we need these citations in order to attract the funding resources that allow us to do what we are doing

Therefore, if you are a happy ORCA user, please consider citing a few of the papers listed below in the main body of your paper

In addition to the list printed below, the program has created the file AR3LD_3.6_4.0_4.4.bibtex that contains the list in bibtex format
You can import this file easily into all common literature databanks and citation aid programs


List of essential papers. We consider these as the minimum necessary citations

  1. Neese,F.
     Software update: the ORCA program system, version 5.0
     WIRES Comput. Molec. Sci., 2022 12(1)e1606
     doi.org/10.1002/wcms.1606

List of papers to cite with high priority. The work reported in these papers was absolutely
necessary for this run to complete.
Our perspective: the developers of density functionals and basis sets usually get cited in chemistry papers
Good! But without the algorithms to do something with them, the functionals or basis sets would not do anything.
Hence, in our opinion, the algorithm design and method developments papers are equally worthy of getting cited

  1. Neese,F.; Hansen,A.; Liakos,D.G.
     Efficient and accurate approximations to the local coupled cluster singles doubles method using a truncated pair natural orbital basis
     J. Chem. Phys., 2009 131 064103
     doi.org/10.1063/1.3173827
  2. Neese,F.; Wennmohs,F.; Hansen,A.
     Efficient and accurate local approximations to coupled-electron pair approaches: An attempt to revive the pair natural orbital method
     J. Chem. Phys., 2009 130 114108
     doi.org/10.1063/1.3086717
  3. Riplinger,C.; Neese,F.
     An efficient and near linear scaling pair natural orbital based local coupled cluster method
     J. Chem. Phys., 2013 138(3)Art. No. 034106
     doi.org/10.1063/1.4773581
  4. Datta,D.; Kossmann,S.; Neese,F.
     Analytic energy derivatives for the calculation of the first-order molecular properties using the domain-based local pair-natural orbital coupled-cluster theory
     J. Chem. Phys., 2016 145 
     doi.org/10.1063/1.4962369
  5. Riplinger,C.; Pinski,P.; Becker,U.; Valeev,E.F.; Neese,F.
     Sparse maps-A systematic infrastructure for reduced-scaling electronic structure methods. II. Linear scaling domain based pair natural orbital coupled cluster theory
     J. Chem. Phys., 2016 144 
     doi.org/10.1063/1.4939030
  6. Schneider,W.B.; Bistoni,G.; Sparta,M.; Saitow,M.; Riplinger,C.; Auer,A.A.; Neese,F.
     Decomposition of Intermolecular Interaction Energies within the Local Pair Natural Orbital Coupled Cluster Framework
     J. Theo. Comp. Chem., 2016 12 4778-4792
     doi.org/10.1021/acs.jctc.6b00523
  7. Bistoni,G.; Riplinger,C.; Minenkov,Y.; Cavallo,L.; Auer,A.A.; Neese,F.
     Treating Subvalence Correlation Effects in Domain Based Pair Natural Orbital Coupled Cluster Calculations: An Out-of-the-Box Approach
     J. Theo. Comp. Chem., 2017 13 3220-3227
     doi.org/10.1021/acs.jctc.7b00352
  8. Altun,A.; Neese,F.; Bistoni,G.
     HFLD: A Nonempirical London Dispersion-Corrected Hartree-Fock Method for the Quantification and Analysis of Noncovalent Interaction Energies of Large Molecular Systems
     J. Chem. Theory Comput., 2019 15 5894-5907
     doi.org/10.1021/acs.jctc.9b00425
  9. Neese,F.
     The SHARK Integral Generation and Digestion System
     J. Comp. Chem., 2022  1-16
     doi.org/10.1002/jcc.26942
 10. Altun,A.; Neese,F.; Bistoni,G.
     Open-Shell Variant of the London Dispersion-Corrected Hartree–Fock Method (HFLD) for the Quantification and Analysis of Noncovalent Interaction Energies
     J. Chem. Theory Comput., 2022 XX XXXX-XXXX
     doi.org/10.1021/acs.jctc.1c01295

List of suggested additional citations. These are papers that are important in the 'surrounding' of 
of this run, or papers that preceded the highly important papers. If you like your results we are grateful for a citation.

  1. Neese,F.
     The ORCA program system
     WIRES Comput. Molec. Sci., 2012 2(1)73-78
     doi.org/10.1002/wcms.81
  2. Neese,F.
     Software update: the ORCA program system, version 4.0
     WIRES Comput. Molec. Sci., 2018 8(1)1-6
     doi.org/10.1002/wcms.1327
  3. Neese,F.; Wennmohs,F.; Becker,U.; Riplinger,C.
     The ORCA quantum chemistry program package
     J. Chem. Phys., 2020 152 Art. No. L224108
     doi.org/10.1063/5.0004608
  4. Bistoni,G.
     Finding chemical concepts in the Hilbert space: Coupled cluster analyses of noncovalent interactions
     WIRES Comput. Molec. Sci., 2020 10(3)e1442
     doi.org/10.1002/wcms.1442

List of optional additional citations

  1. Neese,F.
     Approximate second-order SCF convergence for spin unrestricted wavefunctions
     Chem. Phys. Lett., 2000 325(1-3)93-98
     doi.org/10.1016/s0009-2614(00)00662-x

Timings for individual modules:

Sum of individual times          ...       11.969 sec (=   0.199 min)
Startup calculation              ...        0.915 sec (=   0.015 min)   7.6 %
SCF iterations                   ...        5.140 sec (=   0.086 min)  42.9 %
Property integrals               ...        0.039 sec (=   0.001 min)   0.3 %
Property calculations            ...        0.174 sec (=   0.003 min)   1.5 %
MDCI module                      ...        5.701 sec (=   0.095 min)  47.6 %
                             ****ORCA TERMINATED NORMALLY****
TOTAL RUN TIME: 0 days 0 hours 0 minutes 12 seconds 79 msec
