
                                 *****************
                                 * O   R   C   A *
                                 *****************

                                            #,                                       
                                            ###                                      
                                            ####                                     
                                            #####                                    
                                            ######                                   
                                           ########,                                 
                                     ,,################,,,,,                         
                               ,,#################################,,                 
                          ,,##########################################,,             
                       ,#########################################, ''#####,          
                    ,#############################################,,   '####,        
                  ,##################################################,,,,####,       
                ,###########''''           ''''###############################       
              ,#####''   ,,,,##########,,,,          '''####'''          '####       
            ,##' ,,,,###########################,,,                        '##       
           ' ,,###''''                  '''############,,,                           
         ,,##''                                '''############,,,,        ,,,,,,###''
      ,#''                                            '''#######################'''  
     '                                                          ''''####''''         
             ,#######,   #######,   ,#######,      ##                                
            ,#'     '#,  ##    ##  ,#'     '#,    #''#        ,####,   ,####,        
            ##       ##  ##   ,#'  ##            #'  '#       #'       #'  '#        
            ##       ##  #######   ##           ,######,      #####,   #    #        
            '#,     ,#'  ##    ##  '#,     ,#' ,#      #,     #,   #   #,  ,#        
             '#######'   ##     ##  '#######'  #'      '#     '####' # '####'        



                #########################################################
                #                        -***-                          #
                #          Department of theory and spectroscopy        #
                #                                                       #
                #                      Frank Neese                      #
                #                                                       #
                #     Directorship, Architecture, Infrastructure        #
                #                    SHARK, DRIVERS                     #
                #        Core code/Algorithms in most modules           #
                #                                                       #
                #        Max Planck Institute fuer Kohlenforschung      #
                #                Kaiser Wilhelm Platz 1                 #
                #                 D-45470 Muelheim/Ruhr                 #
                #                      Germany                          #
                #                                                       #
                #                  All rights reserved                  #
                #                        -***-                          #
                #########################################################


                         Program Version 6.0.0  -   RELEASE  -


 With contributions from (in alphabetic order):
   Daniel Aravena         : Magnetic Suceptibility
   Michael Atanasov       : Ab Initio Ligand Field Theory (pilot matlab implementation)
   Alexander A. Auer      : GIAO ZORA, VPT2 properties, NMR spectrum
   Ute Becker             : All parallelization in ORCA, NUMFREQ, NUMCALC
   Giovanni Bistoni       : ED, misc. LED, open-shell LED, HFLD
   Martin Brehm           : Molecular dynamics
   Dmytro Bykov           : pre 5.0 version of the SCF Hessian
   Marcos Casanova-Páez   : Triplet and SCS-CIS(D). UHF-(DLPNO)-IP/EA/STEOM-CCSD. UHF-CVS-IP/STEOM-CCSD
   Vijay G. Chilkuri      : MRCI spin determinant printing, contributions to CSF-ICE
   Pauline Colinet        : FMM embedding
   Dipayan Datta          : RHF DLPNO-CCSD density
   Achintya Kumar Dutta   : EOM-CC, STEOM-CC
   Nicolas Foglia         : Exact transition moments, OPA infrastructure, MCD improvements
   Dmitry Ganyushin       : Spin-Orbit,Spin-Spin,Magnetic field MRCI
   Miquel Garcia          : C-PCM and meta-GGA Hessian, CCSD/C-PCM, Gaussian charge scheme
   Tiago L. C. Gouveia    : GS-ROHF, GS-ROCIS
   Yang Guo               : DLPNO-NEVPT2, F12-NEVPT2, CIM, IAO-localization
   Andreas Hansen         : Spin unrestricted coupled pair/coupled cluster methods
   Ingolf Harden          : AUTO-CI MPn and infrastructure 
   Benjamin Helmich-Paris : MC-RPA, TRAH-(SCF,CASSCF), AVAS, COSX integrals, SCF dyn. polar.
   Lee Huntington         : MR-EOM, pCC
   Robert Izsak           : Overlap fitted RIJCOSX, COSX-SCS-MP3, EOM
   Riya Kayal             : Wick's Theorem for AUTO-CI, AUTO-CI UHF-CCSDT
   Emily Kempfer          : AUTO-CI, RHF CISDT and CCSDT
   Christian Kollmar      : KDIIS, OOCD, Brueckner-CCSD(T), CCSD density, CASPT2, CASPT2-K, improved NEVPT2
   Axel Koslowski         : Symmetry handling
   Simone Kossmann        : Meta GGA functionals, TD-DFT gradient, OOMP2, (MP2 Hessian; deprecated post 5.0)
   Lucas Lang             : DCDCAS
   Marvin Lechner         : AUTO-CI (C++ implementation), FIC-MRCC
   Spencer Leger          : CASSCF response
   Dagmar Lenk            : GEPOL surface, SMD, ORCA-2-JSON
   Dimitrios Liakos       : Extrapolation schemes; Compound Job, initial MDCI parallelization
   Dimitrios Manganas     : Further ROCIS development; embedding schemes. LFT, Crystal Embedding
   Dimitrios Pantazis     : SARC Basis sets
   Anastasios Papadopoulos: AUTO-CI, single reference methods and gradients
   Taras Petrenko         : pre 6.0 DFT Hessian and TD-DFT gradient, (ASA, deprecated), ECA, 1-Electron XAS/XES, NRVS
   Peter Pinski           : DLPNO-MP2, DLPNO-MP2 Gradient
   Christoph Reimann      : Effective Core Potentials
   Marius Retegan         : Local ZFS, SOC
   Christoph Riplinger    : Optimizer, TS searches, QM/MM, DLPNO-CCSD(T), (RO)-DLPNO pert. Triples
   Michael Roemelt        : Original ROCIS implementation
   Masaaki Saitow         : Open-shell DLPNO-CCSD energy and density
   Barbara Sandhoefer     : DKH picture change effects
   Kantharuban Sivalingam : CASSCF convergence/infrastructure, NEVPT2 and variants, FIC-MRCI
   Bernardo de Souza      : ESD, SOC TD-DFT
   Georgi Stoychev        : AutoAux, RI-MP2 NMR, DLPNO-MP2 response, X2C
   Van Anh Tran           : RI-MP2 g-tensors
   Willem Van den Heuvel  : Paramagnetic NMR
   Zikuan Wang            : NOTCH, Electric field optimization 
   Frank Wennmohs         : Technical directorship and infrastructure
   Hang Xu                : AUTO-CI-Response properties 


 We gratefully acknowledge several colleagues who have allowed us to
 interface, adapt or use parts of their codes:
   Stefan Grimme, W. Hujo, H. Kruse, P. Pracht,  : VdW corrections, initial TS optimization,
                  C. Bannwarth, S. Ehlert,         DFT functionals, gCP, sTDA/sTD-DF
                  L. Wittmann, M. Mueller
   Ed Valeev, F. Pavosevic, A. Kumar             : LibInt (2-el integral package), F12 methods
   Garnet Chan, S. Sharma, J. Yang, R. Olivares  : DMRG
   Ulf Ekstrom                                   : XCFun DFT Library
   Mihaly Kallay                                 : mrcc  (arbitrary order and MRCC methods)
   Frank Weinhold                                : gennbo (NPA and NBO analysis)
   Simon Mueller                                 : openCOSMO-RS
   Christopher J. Cramer and Donald G. Truhlar   : smd solvation model
   Lars Goerigk                                  : TD-DFT with DH, B97 family of functionals
   V. Asgeirsson, H. Jonsson                     : NEB implementation
   FAccTs GmbH                                   : IRC, NEB, NEB-TS, DLPNO-Multilevel, CI-OPT
                                                   MM, QMMM, 2- and 3-layer-ONIOM, Crystal-QMMM,
                                                   LR-CPCM, SF, NACMEs, symmetry and pop. for TD-DFT,
                                                   nearIR, NL-DFT gradient (VV10), updates on ESD,
                                                   ML-optimized integration grids, MBIS, APM,
                                                   GOAT, DOCKER, SOLVATOR, interface openCOSMO-RS
   S Lehtola, MJT Oliveira, MAL Marques          : LibXC Library
   Liviu Ungur et al                             : ANISO software


 Your calculation uses the libint2 library for the computation of 2-el integrals
 For citations please refer to: http://libint.valeyev.net

 Your ORCA version has been built with support for libXC version: 6.2.2
 For citations please refer to: https://libxc.gitlab.io

 This ORCA versions uses:
   CBLAS   interface :  Fast vector & matrix operations
   LAPACKE interface :  Fast linear algebra routines
   SCALAPACK package :  Parallel linear algebra routines
   Shared memory     :  Shared parallel matrices
   BLAS/LAPACK       :  OpenBLAS 0.3.27  USE64BITINT DYNAMIC_ARCH NO_AFFINITY Haswell SINGLE_THREADED
        Core in use  :  Haswell
   Copyright (c) 2011-2014, The OpenBLAS Project


================================================================================

----- Orbital basis set information -----
Your calculation utilizes the basis: aug-cc-pVDZ 
    H, B-Ne : Obtained from the ccRepo (grant-hill.group.shef.ac.uk/ccrepo) Feb. 2017
              R. A. Kendall, T. H. Dunning, Jr., R. J. Harrison, J. Chem. Phys. 96, 6796 (1992)
         He : Obtained from the ccRepo (grant-hill.group.shef.ac.uk/ccrepo) Feb. 2017
              D. E. Woon, T. H. Dunning, Jr., J. Chem. Phys. 100, 2975 (1994)
  Li-Be, Na : Obtained from the ccRepo (grant-hill.group.shef.ac.uk/ccrepo) Feb. 2017
              B. P. Prascher, D. E. Woon, K. A. Peterson, T. H. Dunning, Jr., A. K. Wilson, Theor. Chem. Acc. 128, 69 (2011)
         Mg : Obtained from the Peterson Research Group Website (tyr0.chem.wsu.edu/~kipeters) Feb. 2017
              B. P. Prascher, D. E. Woon, K. A. Peterson, T. H. Dunning, Jr., A. K. Wilson, Theor. Chem. Acc. 128, 69 (2011)
      Al-Ar : Obtained from the ccRepo (grant-hill.group.shef.ac.uk/ccrepo) Feb. 2017
              D. E. Woon, T. H. Dunning, Jr., J. Chem. Phys. 98, 1358 (1993)
      Sc-Zn : Obtained from the ccRepo (grant-hill.group.shef.ac.uk/ccrepo) Feb. 2017
              N. B. Balabanov, K. A. Peterson, J. Chem. Phys. 123, 064107 (2005)
              N. B. Balabanov, K. A. Peterson, J. Chem. Phys. 125, 074110 (2006)
      Ga-Kr : Obtained from the ccRepo (grant-hill.group.shef.ac.uk/ccrepo) Feb. 2017
              A. K. Wilson, D. E. Woon, K. A. Peterson, T. H. Dunning, Jr., J. Chem. Phys. 110, 7667 (1999)

----- AuxC basis set information -----
Your calculation utilizes the auxiliary basis: aug-cc-pVDZ/C 
  H-He, B, Ne, Al-Ar, Ga-Ge, Se-Br : Obtained from the EMSL Basis Set Exchange (bse.pnl.gov) Feb. 2017
                                     F. Weigend, A. Kohn, C. Hattig, J. Chem. Phys. 116, 3175 (2002)
                            Be, Mg : Obtained from the TURBOMOLE 7.0 basis set library
                                     C. Haettig, Phys. Chem. Chem. Phys. 7, 59 (2005)
                               C-F : Obtained from the EMSL Basis Set Exchange (bse.pnl.gov) Feb. 2017
                                     C. Haettig, Phys. Chem. Chem. Phys. 7, 59 (2005)
                                     F. Weigend, A. Kohn, C. Hattig, J. Chem. Phys. 116, 3175 (2002)
                                As : Obtained from the EMSL Basis Set Exchange (bse.pnl.gov) Feb. 2017
                                     C. Haettig, G. Schmitz, J. Kossmann, Phys. Chem. Chem. Phys. 14, 6549 (2012)
                                Kr : Obtained from the TURBOMOLE 7.0 basis set library
                                     F. Weigend, A. Kohn, C. Hattig, J. Chem. Phys. 116, 3175 (2002)
                                     S function revised in Sep. 2009

================================================================================
                                        WARNINGS
                       Please study these warnings very carefully!
================================================================================


WARNING: Post HF methods need fully converged wavefunctions
  ===> : Setting SCFConvForced true
         You can overwrite this default with %scf ConvForced false 


================================================================================
                                       INPUT FILE
================================================================================
NAME = AR3LD_4.0_3.6_4.8.inp
|  1> # MP2 scan of the potential energy curve for Ar...Ar
|  2>                 ! HFLD aug-cc-pvdz aug-cc-pvdz/C verytightscf
|  3>                 *xyz 0 1
|  4>                 Ar(1)	0    0	0.00000000000000
|  5>                 Ar(2)	4.8	0    0.00000000000000
|  6>                 Ar(3)	2.0833333333333335	2.935936345056245    0.00000000000000
|  7>                 **                         ****END OF INPUT****
================================================================================

                       ****************************
                       * Single Point Calculation *
                       ****************************

---------------------------------
CARTESIAN COORDINATES (ANGSTROEM)
---------------------------------
  Ar     0.000000    0.000000    0.000000
  Ar     4.800000    0.000000    0.000000
  Ar     2.083333    2.935936    0.000000

----------------------------
CARTESIAN COORDINATES (A.U.)
----------------------------
  NO LB      ZA    FRAG     MASS         X           Y           Z
   0 Ar   18.0000    1    39.948    0.000000    0.000000    0.000000
   1 Ar   18.0000    2    39.948    9.070685    0.000000    0.000000
   2 Ar   18.0000    3    39.948    3.936929    5.548116    0.000000

----------------------------------------------
CARTESIAN COORDINATES OF FRAGMENTS (ANGSTROEM)
----------------------------------------------

 FRAGMENT 1 
  Ar    0.000000    0.000000    0.000000

 FRAGMENT 2 
  Ar    4.800000    0.000000    0.000000

 FRAGMENT 3 
  Ar    2.083333    2.935936    0.000000

--------------------------------
INTERNAL COORDINATES (ANGSTROEM)
--------------------------------
 Ar     0   0   0     0.000000000000     0.00000000     0.00000000
 Ar     1   0   0     4.800000000000     0.00000000     0.00000000
 Ar     1   2   0     3.600000000000    54.64058038     0.00000000

---------------------------
INTERNAL COORDINATES (A.U.)
---------------------------
 Ar     0   0   0     0.000000000000     0.00000000     0.00000000
 Ar     1   0   0     9.070685442822     0.00000000     0.00000000
 Ar     1   2   0     6.803014082117    54.64058038     0.00000000

---------------------
BASIS SET INFORMATION
---------------------
There are 1 groups of distinct atoms

 Group   1 Type Ar  : 35s16p2d contracted to 5s4p2d pattern {11111111/7711/11}

Atom   0Ar   basis set group =>   1
Atom   1Ar   basis set group =>   1
Atom   2Ar   basis set group =>   1
---------------------------------
AUXILIARY/C BASIS SET INFORMATION
---------------------------------
There are 1 groups of distinct atoms

 Group   1 Type Ar  : 10s8p6d4f contracted to 10s8p6d4f pattern {1111111111/11111111/111111/1111}

Atom   0Ar   basis set group =>   1
Atom   1Ar   basis set group =>   1
Atom   2Ar   basis set group =>   1
------------------------------------------------------------------------------
                             ORCA STARTUP CALCULATIONS
------------------------------------------------------------------------------
------------------------------------------------------------------------------
                   ___                                                        
                  /   \      - P O W E R E D   B Y -                         
                 /     \                                                     
                 |  |  |   _    _      __       _____    __    __             
                 |  |  |  | |  | |    /  \     |  _  \  |  |  /  |          
                  \  \/   | |  | |   /    \    | | | |  |  | /  /          
                 / \  \   | |__| |  /  /\  \   | |_| |  |  |/  /          
                |  |  |   |  __  | /  /__\  \  |    /   |      \           
                |  |  |   | |  | | |   __   |  |    \   |  |\   \          
                \     /   | |  | | |  |  |  |  | |\  \  |  | \   \       
                 \___/    |_|  |_| |__|  |__|  |_| \__\ |__|  \__/        
                                                                              
                      - O R C A' S   B I G   F R I E N D -                    
                                      &                                       
                       - I N T E G R A L  F E E D E R -                       
                                                                              
 v1 FN, 2020, v2 2021, v3 2022-2024                                           
------------------------------------------------------------------------------


----------------------
SHARK INTEGRAL PACKAGE
----------------------

Number of atoms                             ...      3
Number of basis functions                   ...    150
Number of shells                            ...     72
Maximum angular momentum                    ...      2
Integral batch strategy                     ... SHARK/LIBINT Hybrid
RI-J (if used) integral strategy            ... SPLIT-RIJ (Revised 2003 algorithm where possible)
Printlevel                                  ...      1
Contraction scheme used                     ... PARTIAL GENERAL contraction
Prescreening option                         ... SCHWARTZ
   Thresh                                   ... 1.000e-12
   Tcut                                     ... 1.000e-14
   Tpresel                                  ... 1.000e-14 
Coulomb Range Separation                    ... NOT USED
Exchange Range Separation                   ... NOT USED
Multipole approximations                    ... NOT USED
Finite Nucleus Model                        ... NOT USED
CABS basis                                  ... NOT available
Auxiliary Coulomb fitting basis             ... NOT available
Auxiliary J/K fitting basis                 ... NOT available
Auxiliary Correlation fitting basis         ... AVAILABLE
   # of basis functions in Aux-C            ...    276
   # of shells in Aux-C                     ...     84
   Maximum angular momentum in Aux-C        ...      3
Auxiliary 'external' fitting basis          ... NOT available

Checking pre-screening integrals            ... done (  0.0 sec) Dimension = 72
Save PGC pre-screening integrals            ... done (  0.0 sec) Dimension = 72
Calculate PGC overlap integrals             ... done (  0.0 sec) Dimension = 33
Calculating pre-screening integrals (ORCA)  ... done (  0.1 sec) Dimension = 33
Check shell pair data                       ... done (  0.0 sec)
Shell pair information
Shell pair cut-off parameter TPreSel        ...   1.0e-14
Total number of shell pairs                 ...      2628
Shell pairs after pre-screening             ...      1672
Total number of primitive shell pairs       ...      2628
Primitive shell pairs kept                  ...      1670
          la=0 lb=0:    432 shell pairs
          la=1 lb=0:    637 shell pairs
          la=1 lb=1:    256 shell pairs
          la=2 lb=0:    186 shell pairs
          la=2 lb=1:    140 shell pairs
          la=2 lb=2:     21 shell pairs

Calculating one electron integrals          ... done (  0.0 sec)
Calculating RI/C V-Matrix + Cholesky decomp.... done (  0.0 sec)
Calculating Nuclear repulsion               ... done (  0.0 sec) ENN=    126.208764179550 Eh

Diagonalization of the overlap matrix:
Smallest eigenvalue                        ... 2.751e-02
Time for diagonalization                   ...    0.001 sec
Threshold for overlap eigenvalues          ... 1.000e-07
Number of eigenvalues below threshold      ... 0
Time for construction of square roots      ...    0.000 sec
Total time needed                          ...    0.002 sec

-------------------
DFT GRID GENERATION
-------------------

General Integration Accuracy     IntAcc      ... 4.388
Radial Grid Type                 RadialGrid  ... OptM3 with GC (2021)
Angular Grid (max. ang.)         AngularGrid ... 4 (Lebedev-302)
Angular grid pruning method      GridPruning ... 4 (adaptive)
Weight generation scheme         WeightScheme... mBecke (2022)
Basis function cutoff            BFCut       ... 1.0000e-12
Integration weight cutoff        WCut        ... 1.0000e-14
Partially contracted basis set               ... off
Rotationally invariant grid construction     ... off
Angular grids for H and He will be reduced by one unit

Total number of grid points                  ...    22086
Total number of batches                      ...      347
Average number of points per batch           ...       63
Average number of grid points per atom       ...     7362

---------------------
SHARK GRID GENERATION
---------------------

General Integration Accuracy     IntAcc      ... 4.388
Radial Grid Type                 RadialGrid  ... OptM3 with GC (2021)
Angular Grid (max. ang.)         AngularGrid ... 4 (Lebedev-302)
Angular grid pruning method      GridPruning ... 4 (adaptive)
Weight generation scheme         WeightScheme... mBecke (2022)
Basis function cutoff            BFCut       ... 1.0000e-12
Integration weight cutoff        WCut        ... 1.0000e-14
Partially contracted basis set               ... off
Rotationally invariant grid construction     ... off
Angular grids for H and He will be reduced by one unit
Core-polarized basis detected: some atoms will have their core
                               angular grid increased.
Steep s-basis detected: some atoms will have their radial
                        grid points doubled.

Total number of grid points                  ...    58029
Total number of batches                      ...      908
Average number of points per batch           ...       63
Average number of grid points per atom       ...    19343
Initializing property integral containers    ... done (  0.0 sec)

SHARK setup successfully completed in   1.9 seconds

Maximum memory used throughout the entire STARTUP-calculation: 27.4 MB
-------------------------------------------------------------------------------
                                 ORCA GUESS
                   Start orbitals & Density for SCF / CASSCF
-------------------------------------------------------------------------------

------------
SCF SETTINGS
------------
Hamiltonian:
 Ab initio Hamiltonian  Method          .... Hartree-Fock(GTOs)


General Settings:
 Integral files         IntName         .... AR3LD_4.0_3.6_4.8
 Hartree-Fock type      HFTyp           .... RHF
 Total Charge           Charge          ....    0
 Multiplicity           Mult            ....    1
 Number of Electrons    NEL             ....   54
 Basis Dimension        Dim             ....   81
 Nuclear Repulsion      ENuc            ....    126.2087641796 Eh

Convergence Acceleration:
 AO-DIIS                CNVDIIS         .... on
   Start iteration      DIISMaxIt       ....    12
   Startup error        DIISStart       ....  0.200000
   # of expansion vecs  DIISMaxEq       ....     5
   Bias factor          DIISBfac        ....   1.050
   Max. coefficient     DIISMaxC        ....  10.000
 MO-DIIS                CNVKDIIS        .... off
 Trust-Rad. Augm. Hess. CNVTRAH         .... auto
   Auto Start mean grad. ratio tolernc. ....  1.125000
   Auto Start start iteration           ....    50
   Auto Start num. interpolation iter.  ....    10
   Max. Number of Micro iterations      ....    24
   Max. Number of Macro iterations      .... Maxiter - #DIIS iter
   Number of Davidson start vectors     ....     2
   Converg. threshold    (grad. norm)   ....   2.000e-06
   Grad. Scal. Fac. for Micro threshold ....   0.100
   Minimum threshold for Micro iter.    ....   1.000e-02
   NR start threshold (gradient norm)   ....   1.000e-04
   Initial trust radius                 ....   0.400
   Minimum AH scaling param. (alpha)    ....   1.000
   Maximum AH scaling param. (alpha)    .... 1000.000
   Quad. conv. algorithm                .... NR
   White noise on init. David. guess    .... on
   Maximum white noise                  ....   0.010
   Pseudo random numbers                .... off
   Inactive MOs                         .... canonical
   Orbital update algorithm             .... Taylor
   Preconditioner                       .... Diag
   Full preconditioner red. dimension   ....   250
 SOSCF                  CNVSOSCF        .... on
   Start iteration      SOSCFMaxIt      ....   150
   Startup grad/error   SOSCFStart      ....  0.003300
   Hessian update       SOSCFHessUp     .... L-BFGS
 Level Shifting         CNVShift        .... on
   Level shift para.    LevelShift      ....    0.2500
   Turn off err/grad.   ShiftErr        ....    0.0010
 Zerner damping         CNVZerner       .... off
 Static damping         CNVDamp         .... on
   Fraction old density DampFac         ....    0.7000
   Max. Damping (<1)    DampMax         ....    0.9800
   Min. Damping (>=0)   DampMin         ....    0.0000
   Turn off err/grad.   DampErr         ....    0.1000

SCF Procedure:
 Maximum # iterations   MaxIter         ....   125
 SCF integral mode      SCFMode         .... Direct
   Integral package                     .... SHARK and LIBINT hybrid scheme
 Reset frequency        DirectResetFreq ....    20
 Integral Threshold     Thresh          ....  1.000e-12 Eh
 Primitive CutOff       TCut            ....  1.000e-14 Eh

Convergence Tolerance:
 Convergence Check Mode ConvCheckMode   .... Total+1el-Energy
 Convergence forced     ConvForced      .... 1
 Energy Change          TolE            ....  1.000e-09 Eh
 1-El. energy change                    ....  1.000e-06 Eh
 Orbital Gradient       TolG            ....  2.000e-06
 Orbital Rotation angle TolX            ....  2.000e-06
 DIIS Error             TolErr          ....  1.000e-08

------------------------------
INITIAL GUESS: MODEL POTENTIAL
------------------------------
Loading Hartree-Fock densities                     ... done
Calculating cut-offs                               ... done
Initializing the effective Hamiltonian             ... done
Setting up the integral package (SHARK)            ... done
Starting the Coulomb interaction                   ... done (   0.0 sec)
Making the grid                                    ... done (   0.1 sec)
Mapping shells                                     ... done
Starting the XC term evaluation                    ... done (   0.0 sec)
Transforming the Hamiltonian                       ... done (   0.0 sec)
Diagonalizing the Hamiltonian                      ... done (   0.0 sec)
Back transforming the eigenvectors                 ... done (   0.0 sec)
Now organizing SCF variables                       ... done
                      ------------------
                      INITIAL GUESS DONE (   0.1 sec)
                      ------------------
             **** ENERGY FILE WAS UPDATED (AR3LD_4.0_3.6_4.8.en.tmp) ****
Finished Guess after   0.2 sec
Maximum memory used throughout the entire GUESS-calculation: 6.6 MB

-------------------------------------------------------------------------------------------
                                      ORCA LEAN-SCF
                              memory conserving SCF solver
-------------------------------------------------------------------------------------------

----------------------------------------D-I-I-S--------------------------------------------
Iteration    Energy (Eh)           Delta-E    RMSDP     MaxDP     DIISErr   Damp  Time(sec)
-------------------------------------------------------------------------------------------
               ***  Starting incremental Fock matrix formation  ***
    1    -1580.3844714771844338     0.00e+00  1.03e-03  1.75e-02  9.29e-02  0.700   1.1
    2    -1580.3895038695072799    -5.03e-03  8.06e-04  1.28e-02  6.66e-02  0.700   0.9
                               ***Turning on AO-DIIS***
    3    -1580.3931501402821596    -3.65e-03  6.40e-04  9.35e-03  4.74e-02  0.700   0.4
    4    -1580.3957663778678580    -2.62e-03  1.57e-03  2.20e-02  3.33e-02  0.000   0.4
                              *** Initializing SOSCF ***
---------------------------------------S-O-S-C-F--------------------------------------
Iteration    Energy (Eh)           Delta-E    RMSDP     MaxDP     MaxGrad    Time(sec)
--------------------------------------------------------------------------------------
    5    -1580.4021272074446642    -6.36e-03  8.12e-05  1.03e-03  1.01e-03     0.3
               *** Restarting incremental Fock matrix formation ***
    6    -1580.4021351487904212    -7.94e-06  3.98e-05  5.49e-04  2.50e-04     0.4
    7    -1580.4021366203467096    -1.47e-06  1.46e-05  1.77e-04  5.79e-05     0.5
    8    -1580.4021367126692894    -9.23e-08  7.73e-07  1.36e-05  7.09e-06     0.5
    9    -1580.4021367130837916    -4.15e-10  1.39e-07  2.36e-06  1.13e-06     0.4
                 **** Energy Check signals convergence ****

               *****************************************************
               *                     SUCCESS                       *
               *           SCF CONVERGED AFTER   9 CYCLES          *
               *****************************************************

             **** ENERGY FILE WAS UPDATED (AR3LD_4.0_3.6_4.8.en.tmp) ****

----------------
TOTAL SCF ENERGY
----------------

Total Energy       :      -1580.40213671308379 Eh          -43004.92847 eV

Components:
Nuclear Repulsion  :        126.20876417955002 Eh            3434.31507 eV
Electronic Energy  :      -1706.61090089263371 Eh          -46439.24354 eV
One Electron Energy:      -2437.02264077039763 Eh          -66314.75743 eV
Two Electron Energy:        730.41173987776392 Eh           19875.51389 eV

Virial components:
Potential Energy   :      -3160.81817566047266 Eh          -86010.23524 eV
Kinetic Energy     :       1580.41603894738910 Eh           43005.30677 eV
Virial Ratio       :          1.99999120343380

---------------
SCF CONVERGENCE
---------------

  Last Energy change         ...    4.1450e-10  Tolerance :   1.0000e-09
  Last MAX-Density change    ...    2.3640e-06  Tolerance :   1.0000e-08
  Last RMS-Density change    ...    1.3870e-07  Tolerance :   1.0000e-09
  Last DIIS Error            ...    1.0084e-03  Tolerance :   1.0000e-08
  Last Orbital Gradient      ...    1.1313e-06  Tolerance :   2.0000e-06
  Last Orbital Rotation      ...    1.1773e-06  Tolerance :   2.0000e-06


----------------
ORBITAL ENERGIES
----------------

  NO   OCC          E(Eh)            E(eV) 
   0   2.0000    -118.610460     -3227.5547 
   1   2.0000    -118.610048     -3227.5435 
   2   2.0000    -118.609925     -3227.5402 
   3   2.0000     -12.322621      -335.3156 
   4   2.0000     -12.322246      -335.3054 
   5   2.0000     -12.322084      -335.3010 
   6   2.0000      -9.571209      -260.4458 
   7   2.0000      -9.571207      -260.4458 
   8   2.0000      -9.571205      -260.4457 
   9   2.0000      -9.570836      -260.4357 
  10   2.0000      -9.570835      -260.4357 
  11   2.0000      -9.570830      -260.4355 
  12   2.0000      -9.570687      -260.4316 
  13   2.0000      -9.570684      -260.4315 
  14   2.0000      -9.570680      -260.4315 
  15   2.0000      -1.279818       -34.8256 
  16   2.0000      -1.278725       -34.7959 
  17   2.0000      -1.277358       -34.7587 
  18   2.0000      -0.602388       -16.3918 
  19   2.0000      -0.597125       -16.2486 
  20   2.0000      -0.593568       -16.1518 
  21   2.0000      -0.592591       -16.1252 
  22   2.0000      -0.592013       -16.1095 
  23   2.0000      -0.591153       -16.0861 
  24   2.0000      -0.590288       -16.0625 
  25   2.0000      -0.587106       -15.9760 
  26   2.0000      -0.581890       -15.8340 
  27   0.0000       0.122217         3.3257 
  28   0.0000       0.128493         3.4965 
  29   0.0000       0.128646         3.5006 
  30   0.0000       0.129584         3.5262 
  31   0.0000       0.156593         4.2611 
  32   0.0000       0.166480         4.5301 
  33   0.0000       0.168122         4.5748 
  34   0.0000       0.177293         4.8244 
  35   0.0000       0.186067         5.0631 
  36   0.0000       0.202920         5.5217 
  37   0.0000       0.265377         7.2213 
*Only the first 10 virtual orbitals were printed.

                    ********************************
                    * MULLIKEN POPULATION ANALYSIS *
                    ********************************

-------------------------
MULLIKEN FRAGMENT CHARGES
-------------------------
 Fragment   0 :  -0.000225
 Fragment   1 :  -0.000236
 Fragment   2 :   0.000462
Sum of fragment charges:    0.0000000

---------------------------------
MULLIKEN FRAGMENT OVERLAP CHARGES
---------------------------------
                  0          1          2    
      0      18.000650   0.001816  -0.002666
      1       0.001816  17.998096   0.002466
      2      -0.002666   0.002466  17.999639

-----------------------
MULLIKEN ATOMIC CHARGES
-----------------------
   0 Ar:   -0.000225
   1 Ar:   -0.000236
   2 Ar:    0.000462
Sum of atomic charges:    0.0000000

--------------------------------
MULLIKEN REDUCED ORBITAL CHARGES
--------------------------------
  0 Ars       :     5.999299  s :     5.999299
      pz      :     3.999971  p :    12.000660
      px      :     4.000303
      py      :     4.000387
      dz2     :     0.000050  d :     0.000266
      dxz     :     0.000010
      dyz     :     0.000019
      dx2y2   :     0.000049
      dxy     :     0.000138

  1 Ars       :     5.999777  s :     5.999777
      pz      :     3.999994  p :    12.000307
      px      :     4.000225
      py      :     4.000087
      dz2     :     0.000034  d :     0.000153
      dxz     :     0.000003
      dyz     :     0.000004
      dx2y2   :     0.000014
      dxy     :     0.000098

  2 Ars       :     5.998856  s :     5.998856
      pz      :     3.999963  p :    12.000285
      px      :     4.000356
      py      :     3.999965
      dz2     :     0.000075  d :     0.000398
      dxz     :     0.000013
      dyz     :     0.000023
      dx2y2   :     0.000047
      dxy     :     0.000241



                     *******************************
                     * LOEWDIN POPULATION ANALYSIS *
                     *******************************

------------------------
LOEWDIN FRAGMENT CHARGES
------------------------
 Fragment   0 :   0.000216
 Fragment   1 :   0.000410
 Fragment   2 :  -0.000626

----------------------------
LOEWDIN FRAGMENT BOND ORDERS
----------------------------
                  0          1          2    
      0      17.999784   0.003858   0.066123
      1       0.003858  17.999590   0.030102
      2       0.066123   0.030102  18.000626

----------------------
LOEWDIN ATOMIC CHARGES
----------------------
   0 Ar:    0.000216
   1 Ar:    0.000410
   2 Ar:   -0.000626

-------------------------------
LOEWDIN REDUCED ORBITAL CHARGES
-------------------------------
  0 Ars       :     5.993469  s :     5.993469
      pz      :     3.999973  p :    12.005426
      px      :     4.001910
      py      :     4.003543
      dz2     :     0.000215  d :     0.000889
      dxz     :     0.000007
      dyz     :     0.000012
      dx2y2   :     0.000089
      dxy     :     0.000567

  1 Ars       :     5.997261  s :     5.997261
      pz      :     3.999988  p :    12.002176
      px      :     4.000980
      py      :     4.001208
      dz2     :     0.000037  d :     0.000153
      dxz     :     0.000001
      dyz     :     0.000000
      dx2y2   :     0.000009
      dxy     :     0.000106

  2 Ars       :     5.991486  s :     5.991486
      pz      :     4.000000  p :    12.008123
      px      :     4.002464
      py      :     4.005659
      dz2     :     0.000255  d :     0.001016
      dxz     :     0.000006
      dyz     :     0.000013
      dx2y2   :     0.000087
      dxy     :     0.000656



                      *****************************
                      * MAYER POPULATION ANALYSIS *
                      *****************************

  NA   - Mulliken gross atomic population
  ZA   - Total nuclear charge
  QA   - Mulliken gross atomic charge
  VA   - Mayer's total valence
  BVA  - Mayer's bonded valence
  FA   - Mayer's free valence

  ATOM       NA         ZA         QA         VA         BVA        FA
  0 Ar    18.0002    18.0000    -0.0002     0.0047     0.0047     0.0000
  1 Ar    18.0002    18.0000    -0.0002     0.0057     0.0057    -0.0000
  2 Ar    17.9995    18.0000     0.0005     0.0066     0.0066     0.0000

  Mayer bond orders larger than 0.100000
  => no bond orders to print

-------
TIMINGS
-------

Total SCF time: 0 days 0 hours 0 min 5 sec 

Total time                  ....       5.024 sec
Sum of individual times     ....       5.016 sec  ( 99.8%)

SCF preparation             ....       0.073 sec  (  1.5%)
Fock matrix formation       ....       4.913 sec  ( 97.8%)
  Startup                   ....       0.001 sec  (  0.0% of F)
  Coulomb+Exchange Fock     ....       4.909 sec  ( 99.9% of F)
Diagonalization             ....       0.000 sec  (  0.0%)
Density matrix formation    ....       0.003 sec  (  0.1%)
Total Energy calculation    ....       0.001 sec  (  0.0%)
Population analysis         ....       0.003 sec  (  0.1%)
Orbital Transformation      ....       0.004 sec  (  0.1%)
Orbital Orthonormalization  ....       0.000 sec  (  0.0%)
DIIS solution               ....       0.013 sec  (  0.3%)
SOSCF solution              ....       0.005 sec  (  0.1%)
Finished LeanSCF after   5.0 sec

Maximum memory used throughout the entire LEANSCF-calculation: 8.5 MB

------------------------------------------------------------------------------
                         ORCA PROPERTY INTEGRAL CALCULATIONS
------------------------------------------------------------------------------

GBWName                                   ... AR3LD_4.0_3.6_4.8.gbw
Number of atoms                           ...      3
Number of basis functions                 ...    150
Max core memory                           ...   1024 MB

Dipole integrals                          ... YES
Quadrupole integrals                      ...  NO
Linear momentum integrals                 ... YES
Angular momentum integrals                ... YES
Higher moments length integrals           ...  NO
Higher moments velocity integrals         ...  NO
Kinetic energy integrals                  ...  NO
GIAO right hand sides                     ...  NO
GIAO dipole derivative integrals          ...  NO
SOC integrals                             ...  NO
EPR diamagnetic integrals (GIAO)          ...  NO
EPR gauge integrals                       ...  NO
Field gradient integrals                  ...  NO (   0 nuclei)
Spin-dipole/Fermi contact integrals       ...  NO (   0 nuclei)
Contact density integrals                 ...  NO (   0 nuclei)
Nucleus-orbit integrals                   ...  NO (   0 nuclei)
Geometric perturbations                   ...  NO (   3 nuclei)

Choice of electric origin   ... Center of mass
Position of electric origin ... (  4.3359,  1.8494,  0.0000) 
Choice of magnetic origin   ... GIAO
Position of magnetic origin ... (  0.0000,  0.0000,  0.0000) 

Calculating integrals                     ... Electric Dipole (Length)     done (  0.0 sec)
Calculating integrals                     ... Linear Momentum              done (  0.0 sec)
Calculating integrals                     ... Angular Momentum  (ElOri)    done (  0.0 sec)

Property integrals calculated in   0.0 sec

Maximum memory used throughout the entire PROPINT-calculation: 6.7 MB


--------------------------------------------------------------------------------
                             ORCA-MATRIX DRIVEN CI
--------------------------------------------------------------------------------


Wavefunction type
-----------------
Correlation treatment                      ...      CCSD     
Single excitations                         ... ON
Orbital optimization                       ... OFF
Calculation of Z vector                    ... OFF
Calculation of Brueckner orbitals          ... OFF
Perturbative triple excitations            ... OFF
Calculation of F12 correction              ... OFF
Frozen core treatment                      ... chemical core (30 el)
Reference Wavefunction                     ... RHF
  Internal Orbitals:    15 ...   26 ( 12 MO's/ 24 electrons)
  Virtual  Orbitals:    27 ...   80 ( 54 MO's              )
Number of AO's                             ...     81
Number of electrons                        ...     54
Number of correlated electrons             ...     24

Algorithmic settings
--------------------
Integral transformation                    ... All integrals via the RI transformation
K(C) Formation                             ... RI-DLPNO
   PNO-Integral Storage                    ... ON DISK
   PNO occupation number cut-off           ... 3.330e-07
   Singles PNO occupation number cut-off   ... 9.990e-09
   PNO Mulliken prescreening cut-off       ... 1.000e-03
   Domain cut-off (Mulliken population)    ... 1.000e-03
   PNO Normalization                       ...    1
Maximum number of iterations               ...        50
Convergence tolerance (max. residuum)      ... 1.000e-06
Level shift for amplitude update           ... 2.000e-01
Maximum number of DIIS vectors             ...         7
DIIS turned on at iteration                ...         0
Damping before turning on DIIS             ...     0.500
Damping after turning on DIIS              ...     0.000
Pair specific amplitude update             ... OFF
Natural orbital iterations                 ... OFF
Perturbative natural orbital generation    ... OFF
Printlevel                                 ... 2

Singles Fock matrix elements calculated using PNOs.

Memory handling:
----------------
Maximum memory for working arrays          ...    512 MB
Data storage in matrix containers          ... UNCOMPRESSED
Data type for integral storage             ... DOUBLE
In-Core Storage of quantities:
   Amplitudes+Sigma Vector      ... NO
   J+K operators                ... NO
   DIIS vectors                 ... NO
   3-external integrals         ... NO
   4-external integrals         ... NO

Localization treatment:
-----------------------
Localization option                        ...    2
Localization threshhold                    ... -1.0e+00
Using relative localization threshhold     ... 1.0e-08
Neglect threshold for strong pairs         ... 1.000e-05 Eh
Prescreening threshold for very weak pairs ... 1.000e-07 Eh
Using randomized seed for localization     ... on

Initializing the integral package          ... done
Localizing the valence orbitals
Localizing the valence orbitals
------------------------------------------------------------------------------
                           ORCA ORBITAL LOCALIZATION
------------------------------------------------------------------------------

Input orbitals are from                  ... AR3LD_4.0_3.6_4.8.proc0.gbw
Output orbitals are to                   ... AR3LD_4.0_3.6_4.8.proc0.loc
Max. number of iterations                ... 128
Localizations seeded randomly            ... on
Convergence tolerance                    ... 2.000e-07
Using relative localization threshhold   ... 1.000e-08
Threshold for strong local MOs           ... 9.500e-01
Threshold for bond MOs                   ... 8.500e-01
Operator                                 ... 0
Orbital range for localization           ... 15 to 26
Localization criterion                   ... FOSTER-BOYS
Doing the dipole integrals     ... o.k.
Entering Jacobi type localization:
Using Cholesky decomposition as initial guess.
Initial value of the localization sum :   247.575685
ITERATION   0 : L=  254.3095531504 DL=  6.73e+00 (MAX-T)=  45.000 
ITERATION   1 : L=  254.3118655823 DL=  2.31e-03 (MAX-T)=   1.417 
ITERATION   2 : L=  254.3118778154 DL=  1.22e-05 (MAX-T)=   0.076 
ITERATION   3 : L=  254.3118933574 DL=  1.55e-05 (MAX-T)=   0.073 
ITERATION   4 : L=  254.3119069471 DL=  1.36e-05 (MAX-T)=   0.078 
ITERATION   5 : L=  254.3119191356 DL=  1.22e-05 (MAX-T)=   0.078 
ITERATION   6 : L=  254.3119327952 DL=  1.37e-05 (MAX-T)=   0.076 
ITERATION   7 : L=  254.3119447457 DL=  1.20e-05 (MAX-T)=   0.066 
ITERATION   8 : L=  254.3119578755 DL=  1.31e-05 (MAX-T)=   0.080 
ITERATION   9 : L=  254.3119734479 DL=  1.56e-05 (MAX-T)=   0.076 
ITERATION  10 : L=  254.3119872648 DL=  1.38e-05 (MAX-T)=   0.079 
ITERATION  11 : L=  254.3120030912 DL=  1.58e-05 (MAX-T)=   0.082 
ITERATION  12 : L=  254.3120176490 DL=  1.46e-05 (MAX-T)=   0.071 
ITERATION  13 : L=  254.3120326150 DL=  1.50e-05 (MAX-T)=   0.077 
ITERATION  14 : L=  254.3120450804 DL=  1.25e-05 (MAX-T)=   0.079 
ITERATION  15 : L=  254.3120584698 DL=  1.34e-05 (MAX-T)=   0.067 
ITERATION  16 : L=  254.3120764343 DL=  1.80e-05 (MAX-T)=   0.086 
ITERATION  17 : L=  254.3120895223 DL=  1.31e-05 (MAX-T)=   0.065 
ITERATION  18 : L=  254.3121074075 DL=  1.79e-05 (MAX-T)=   0.085 
ITERATION  19 : L=  254.3121228215 DL=  1.54e-05 (MAX-T)=   0.082 
ITERATION  20 : L=  254.3121396317 DL=  1.68e-05 (MAX-T)=   0.087 
ITERATION  21 : L=  254.3121586822 DL=  1.91e-05 (MAX-T)=   0.080 
ITERATION  22 : L=  254.3121752548 DL=  1.66e-05 (MAX-T)=   0.085 
ITERATION  23 : L=  254.3121919017 DL=  1.66e-05 (MAX-T)=   0.075 
ITERATION  24 : L=  254.3122040210 DL=  1.21e-05 (MAX-T)=   0.076 
ITERATION  25 : L=  254.3122212787 DL=  1.73e-05 (MAX-T)=   0.075 
ITERATION  26 : L=  254.3122383406 DL=  1.71e-05 (MAX-T)=   0.075 
ITERATION  27 : L=  254.3122563945 DL=  1.81e-05 (MAX-T)=   0.086 
ITERATION  28 : L=  254.3122761888 DL=  1.98e-05 (MAX-T)=   0.081 
ITERATION  29 : L=  254.3122903687 DL=  1.42e-05 (MAX-T)=   0.067 
ITERATION  30 : L=  254.3123069208 DL=  1.66e-05 (MAX-T)=   0.069 
ITERATION  31 : L=  254.3123208117 DL=  1.39e-05 (MAX-T)=   0.083 
ITERATION  32 : L=  254.3123398810 DL=  1.91e-05 (MAX-T)=   0.073 
ITERATION  33 : L=  254.3123511825 DL=  1.13e-05 (MAX-T)=   0.091 
ITERATION  34 : L=  254.3123696675 DL=  1.85e-05 (MAX-T)=   0.085 
ITERATION  35 : L=  254.3123863452 DL=  1.67e-05 (MAX-T)=   0.086 
ITERATION  36 : L=  254.3123996888 DL=  1.33e-05 (MAX-T)=   0.067 
ITERATION  37 : L=  254.3124182338 DL=  1.85e-05 (MAX-T)=   0.099 
ITERATION  38 : L=  254.3124376661 DL=  1.94e-05 (MAX-T)=   0.078 
ITERATION  39 : L=  254.3124547811 DL=  1.71e-05 (MAX-T)=   0.080 
ITERATION  40 : L=  254.3124731679 DL=  1.84e-05 (MAX-T)=   0.082 
ITERATION  41 : L=  254.3124922981 DL=  1.91e-05 (MAX-T)=   0.086 
ITERATION  42 : L=  254.3125081395 DL=  1.58e-05 (MAX-T)=   0.083 
ITERATION  43 : L=  254.3125253924 DL=  1.73e-05 (MAX-T)=   0.079 
ITERATION  44 : L=  254.3125423530 DL=  1.70e-05 (MAX-T)=   0.086 
ITERATION  45 : L=  254.3125586045 DL=  1.63e-05 (MAX-T)=   0.089 
ITERATION  46 : L=  254.3125805491 DL=  2.19e-05 (MAX-T)=   0.088 
ITERATION  47 : L=  254.3125964185 DL=  1.59e-05 (MAX-T)=   0.082 
ITERATION  48 : L=  254.3126176477 DL=  2.12e-05 (MAX-T)=   0.086 
ITERATION  49 : L=  254.3126377898 DL=  2.01e-05 (MAX-T)=   0.091 
ITERATION  50 : L=  254.3126568044 DL=  1.90e-05 (MAX-T)=   0.082 
ITERATION  51 : L=  254.3126732484 DL=  1.64e-05 (MAX-T)=   0.069 
ITERATION  52 : L=  254.3126906025 DL=  1.74e-05 (MAX-T)=   0.095 
ITERATION  53 : L=  254.3127102586 DL=  1.97e-05 (MAX-T)=   0.079 
ITERATION  54 : L=  254.3127279251 DL=  1.77e-05 (MAX-T)=   0.088 
ITERATION  55 : L=  254.3127424831 DL=  1.46e-05 (MAX-T)=   0.095 
ITERATION  56 : L=  254.3127614649 DL=  1.90e-05 (MAX-T)=   0.078 
ITERATION  57 : L=  254.3127820241 DL=  2.06e-05 (MAX-T)=   0.092 
ITERATION  58 : L=  254.3128027977 DL=  2.08e-05 (MAX-T)=   0.099 
ITERATION  59 : L=  254.3128262435 DL=  2.34e-05 (MAX-T)=   0.080 
ITERATION  60 : L=  254.3128451636 DL=  1.89e-05 (MAX-T)=   0.083 
ITERATION  61 : L=  254.3128655819 DL=  2.04e-05 (MAX-T)=   0.084 
ITERATION  62 : L=  254.3128861370 DL=  2.06e-05 (MAX-T)=   0.080 
ITERATION  63 : L=  254.3129035979 DL=  1.75e-05 (MAX-T)=   0.088 
ITERATION  64 : L=  254.3129214197 DL=  1.78e-05 (MAX-T)=   0.078 
ITERATION  65 : L=  254.3129391470 DL=  1.77e-05 (MAX-T)=   0.096 
ITERATION  66 : L=  254.3129573503 DL=  1.82e-05 (MAX-T)=   0.083 
ITERATION  67 : L=  254.3129806845 DL=  2.33e-05 (MAX-T)=   0.083 
ITERATION  68 : L=  254.3129984955 DL=  1.78e-05 (MAX-T)=   0.077 
ITERATION  69 : L=  254.3130203929 DL=  2.19e-05 (MAX-T)=   0.094 
ITERATION  70 : L=  254.3130426995 DL=  2.23e-05 (MAX-T)=   0.087 
ITERATION  71 : L=  254.3130630314 DL=  2.03e-05 (MAX-T)=   0.087 
ITERATION  72 : L=  254.3130854357 DL=  2.24e-05 (MAX-T)=   0.094 
ITERATION  73 : L=  254.3131086341 DL=  2.32e-05 (MAX-T)=   0.078 
ITERATION  74 : L=  254.3131276735 DL=  1.90e-05 (MAX-T)=   0.084 
ITERATION  75 : L=  254.3131502266 DL=  2.26e-05 (MAX-T)=   0.095 
ITERATION  76 : L=  254.3131728907 DL=  2.27e-05 (MAX-T)=   0.083 
ITERATION  77 : L=  254.3131919246 DL=  1.90e-05 (MAX-T)=   0.084 
ITERATION  78 : L=  254.3132095622 DL=  1.76e-05 (MAX-T)=   0.090 
ITERATION  79 : L=  254.3132239552 DL=  1.44e-05 (MAX-T)=   0.093 
ITERATION  80 : L=  254.3132441297 DL=  2.02e-05 (MAX-T)=   0.078 
ITERATION  81 : L=  254.3132671421 DL=  2.30e-05 (MAX-T)=   0.088 
ITERATION  82 : L=  254.3132863978 DL=  1.93e-05 (MAX-T)=   0.087 
ITERATION  83 : L=  254.3133051063 DL=  1.87e-05 (MAX-T)=   0.091 
ITERATION  84 : L=  254.3133265184 DL=  2.14e-05 (MAX-T)=   0.092 
ITERATION  85 : L=  254.3133447616 DL=  1.82e-05 (MAX-T)=   0.076 
ITERATION  86 : L=  254.3133633259 DL=  1.86e-05 (MAX-T)=   0.089 
ITERATION  87 : L=  254.3133889775 DL=  2.57e-05 (MAX-T)=   0.091 
ITERATION  88 : L=  254.3134091596 DL=  2.02e-05 (MAX-T)=   0.073 
ITERATION  89 : L=  254.3134309695 DL=  2.18e-05 (MAX-T)=   0.076 
ITERATION  90 : L=  254.3134500140 DL=  1.90e-05 (MAX-T)=   0.094 
ITERATION  91 : L=  254.3134735262 DL=  2.35e-05 (MAX-T)=   0.086 
ITERATION  92 : L=  254.3134982379 DL=  2.47e-05 (MAX-T)=   0.086 
ITERATION  93 : L=  254.3135208467 DL=  2.26e-05 (MAX-T)=   0.100 
ITERATION  94 : L=  254.3135410894 DL=  2.02e-05 (MAX-T)=   0.090 
ITERATION  95 : L=  254.3135615915 DL=  2.05e-05 (MAX-T)=   0.086 
ITERATION  96 : L=  254.3135746075 DL=  1.30e-05 (MAX-T)=   0.092 
ITERATION  97 : L=  254.3135976830 DL=  2.31e-05 (MAX-T)=   0.079 
ITERATION  98 : L=  254.3136176580 DL=  2.00e-05 (MAX-T)=   0.088 
ITERATION  99 : L=  254.3136386658 DL=  2.10e-05 (MAX-T)=   0.080 
ITERATION 100 : L=  254.3136545660 DL=  1.59e-05 (MAX-T)=   0.086 
ITERATION 101 : L=  254.3136749916 DL=  2.04e-05 (MAX-T)=   0.092 
ITERATION 102 : L=  254.3136961491 DL=  2.12e-05 (MAX-T)=   0.089 
ITERATION 103 : L=  254.3137191425 DL=  2.30e-05 (MAX-T)=   0.083 
ITERATION 104 : L=  254.3137364050 DL=  1.73e-05 (MAX-T)=   0.099 
ITERATION 105 : L=  254.3137569413 DL=  2.05e-05 (MAX-T)=   0.100 
ITERATION 106 : L=  254.3137815840 DL=  2.46e-05 (MAX-T)=   0.081 
ITERATION 107 : L=  254.3137998065 DL=  1.82e-05 (MAX-T)=   0.079 
ITERATION 108 : L=  254.3138159411 DL=  1.61e-05 (MAX-T)=   0.094 
ITERATION 109 : L=  254.3138332051 DL=  1.73e-05 (MAX-T)=   0.095 
ITERATION 110 : L=  254.3138541856 DL=  2.10e-05 (MAX-T)=   0.085 
ITERATION 111 : L=  254.3138740791 DL=  1.99e-05 (MAX-T)=   0.077 
ITERATION 112 : L=  254.3138948663 DL=  2.08e-05 (MAX-T)=   0.104 
ITERATION 113 : L=  254.3139150085 DL=  2.01e-05 (MAX-T)=   0.074 
ITERATION 114 : L=  254.3139415659 DL=  2.66e-05 (MAX-T)=   0.079 
ITERATION 115 : L=  254.3139611571 DL=  1.96e-05 (MAX-T)=   0.078 
ITERATION 116 : L=  254.3139826942 DL=  2.15e-05 (MAX-T)=   0.105 
ITERATION 117 : L=  254.3139984747 DL=  1.58e-05 (MAX-T)=   0.074 
ITERATION 118 : L=  254.3140216754 DL=  2.32e-05 (MAX-T)=   0.096 
ITERATION 119 : L=  254.3140388069 DL=  1.71e-05 (MAX-T)=   0.078 
ITERATION 120 : L=  254.3140620481 DL=  2.32e-05 (MAX-T)=   0.102 
ITERATION 121 : L=  254.3140791021 DL=  1.71e-05 (MAX-T)=   0.088 
ITERATION 122 : L=  254.3140992247 DL=  2.01e-05 (MAX-T)=   0.099 
ITERATION 123 : L=  254.3141167870 DL=  1.76e-05 (MAX-T)=   0.102 
ITERATION 124 : L=  254.3141342365 DL=  1.74e-05 (MAX-T)=   0.089 
ITERATION 125 : L=  254.3141584739 DL=  2.42e-05 (MAX-T)=   0.095 
ITERATION 126 : L=  254.3141781752 DL=  1.97e-05 (MAX-T)=   0.102 
ITERATION 127 : L=  254.3141939246 DL=  1.57e-05 (MAX-T)=   0.089 
MAXIMUM NO OF ITERATIONS EXCEEDED - LOCALIZATION NOT CONVERGED


--------------------------------------------------------------------------------
                    LOCALIZED MOLECULAR ORBITAL COMPOSITIONS
--------------------------------------------------------------------------------

The Mulliken populations for each LMO on each atom are computed
The LMO`s will be ordered according to atom index and type
  (A) Strongly localized MO`s have populations of >=0.950 on one atom
  (B) Two center bond orbitals have populations of >=0.850 on two atoms
  (C) Other MO`s are considered to be `delocalized`

FOUND  -  12 strongly local MO`s
       -   0 two center bond MO`s
       -   0 significantly delocalized MO`s

Rather strongly localized orbitals:
MO  26:   2Ar -   0.999659
MO  25:   2Ar -   1.000123
MO  24:   2Ar -   0.999717
MO  23:   2Ar -   0.999856
MO  22:   1Ar -   0.999735
MO  21:   1Ar -   0.999916
MO  20:   1Ar -   0.999989
MO  19:   1Ar -   0.999754
MO  18:   0Ar -   0.999910
MO  17:   0Ar -   0.999846
MO  16:   0Ar -   0.999824
MO  15:   0Ar -   1.000141
Localized MO's were stored in: AR3LD_4.0_3.6_4.8.proc0.loc

Localizing the core orbitals
Localization sum:   309.948573151 
------------------------------------------------------------------------------
                           ORCA ORBITAL LOCALIZATION
------------------------------------------------------------------------------

Input orbitals are from                  ... AR3LD_4.0_3.6_4.8.proc0.loc
Output orbitals are to                   ... AR3LD_4.0_3.6_4.8.proc0.loc
Max. number of iterations                ... 128
Localizations seeded randomly            ... on
Convergence tolerance                    ... 2.000e-07
Using relative localization threshhold   ... 1.000e-08
Threshold for strong local MOs           ... 9.500e-01
Threshold for bond MOs                   ... 8.500e-01
Operator                                 ... 0
Orbital range for localization           ... 0 to 14
Localization criterion                   ... FOSTER-BOYS
Doing the dipole integrals     ... o.k.
Entering Jacobi type localization:
Using Cholesky decomposition as initial guess.
Initial value of the localization sum :   309.492110
ITERATION   0 : L=  309.9417091510 DL=  4.50e-01 (MAX-T)=  45.000 
ITERATION   1 : L=  309.9484926174 DL=  6.78e-03 (MAX-T)=  13.371 
ITERATION   2 : L=  309.9485728577 DL=  8.02e-05 (MAX-T)=   0.982 
ITERATION   3 : L=  309.9485731507 DL=  2.93e-07 (MAX-T)=   0.070 
LOCALIZATION SUM CONVERGED


--------------------------------------------------------------------------------
                    LOCALIZED MOLECULAR ORBITAL COMPOSITIONS
--------------------------------------------------------------------------------

The Mulliken populations for each LMO on each atom are computed
The LMO`s will be ordered according to atom index and type
  (A) Strongly localized MO`s have populations of >=0.950 on one atom
  (B) Two center bond orbitals have populations of >=0.850 on two atoms
  (C) Other MO`s are considered to be `delocalized`

FOUND  -  15 strongly local MO`s
       -   0 two center bond MO`s
       -   0 significantly delocalized MO`s

Rather strongly localized orbitals:
MO  14:   2Ar -   1.000017
MO  13:   2Ar -   1.000013
MO  12:   2Ar -   1.000014
MO  11:   2Ar -   1.000000
MO  10:   2Ar -   1.000010
MO   9:   1Ar -   1.000000
MO   8:   1Ar -   1.000004
MO   7:   1Ar -   1.000004
MO   6:   1Ar -   1.000004
MO   5:   1Ar -   1.000006
MO   4:   0Ar -   1.000008
MO   3:   0Ar -   1.000012
MO   2:   0Ar -   1.000011
MO   1:   0Ar -   1.000000
MO   0:   0Ar -   1.000007
Localized MO's were stored in: AR3LD_4.0_3.6_4.8.proc0.loc

Warning: reference  - re-canonicalizations have been set to INT 1 VIRT 1
Warning: internal orbitals are localized - no re-canonicalization of internal orbitals
Warning: UsePNO is turned on - no re-canonicalization of internal and virtual orbitals
Fock densities were made 
Making Fock matrix and reference energy:

--------------------------
CLOSED-SHELL FOCK OPERATOR
--------------------------

Time needed for Fock operator              ...            2.427 sec
Reference energy                           ...  -1580.402136713

--------------
DLPNO SETTINGS (2015 fully linear scaling implementation)
--------------

TCutMKN:           1.000e-03
TCutPAO:           1.000e-03
TCutPNO:           3.330e-07
TCutPNOSingles:    9.990e-09
TCutEN:            9.700e-01
TCutPAOExt:        1.000e-01
TCutPairs:         1.000e-05
TCutPre:           1.000e-07
TCutOSV:           1.000e-06
TCutDOij:          1.000e-05
TCutDO:            1.000e-02
TCutC:             1.000e-04
TCutCPAO:          1.000e-03
TCutCMO:           1.000e-03
TScaleDOMP2PreScr: 2.000e+00
TScaleMKNMP2PreScr:1.000e+01
TScalePNOMP2PreScr:1.000e+00
PAO overlap thresh 1.000e-08
Using PNOs for Singles Fock computation
Use new domains
Use fully linear algorithm

--------------------------
Mulliken population of the LMOs            ... ok
Performing proximity check                 ... No problems found
Calculating differential overlap integrals ... ok

------------------------
PRESCREENING OF HF PAIRS
------------------------

   .... Finished loop over pairs

                  ============================================
                    30 of   78 PAIRS WERE SKIPPED as HF PAIRS
                  ============================================

Total time spent in skipping HF pairs                 ...     0.000 sec
--------------------------
ELECTRON PAIR PRESCREENING
--------------------------

Dipole-based pair screening          .... used

   TCutDOij = 1.000000e-05
   TCutPre  = 1.000000e-07
   .... Finished loop over pairs
Total time spent in the prescreening                  ...     0.000 sec
sum of pair energies estimated for screened out pairs ...       0.000000000000 Eh
Thresholds for map construction and integral transformation for crude MP2:
   TCutMKN                    ...     1.0e-02
   TCutDO                     ...     2.0e-02
   TCutPairs                  ...     1.0e-05
   TCutPNO_CrudeMP2           ...     3.3e-07
   TCutPNOSingles_CrudeMP2    ...     1.0e-08
--------------------------------
LOCAL RI TRANSFORMATION (IAVPAO)
--------------------------------

Orbital window:      15 to 26
Number of PAOs:      81
Basis functions:     81 (33 shells)
Aux. functions:     276 (84 shells)
Use SHARK:           on
Have SHARK:         yes

Processing maps (0.0 sec)
Average map sizes:
   Aux shells -> MOs              12.0
   Aux shells -> PAOs             81.0
   MOs        -> AO shells        28.4
   PAOs       -> AO shells        33.0

Calculating integrals (0.1 sec, 2.050 MB)
Sorting integrals (0.0 sec, 2.047 MB)
Total time for the integral transformation: 0.1 sec
--------------------------------
INITIAL GUESS AND PNO GENERATION
--------------------------------

Populations of internal orbitals onto Fragments:
  15:      1.000    0.000    0.000  assigned to fragment   1
  16:      1.000    0.000    0.000  assigned to fragment   1
  17:      1.000    0.000    0.000  assigned to fragment   1
  18:      1.000    0.000    0.000  assigned to fragment   1
  19:      0.000    1.000    0.000  assigned to fragment   2
  20:      0.000    1.000    0.000  assigned to fragment   2
  21:      0.000    1.000    0.000  assigned to fragment   2
  22:      0.000    1.000    0.000  assigned to fragment   2
  23:      0.000    0.000    1.000  assigned to fragment   3
  24:      0.000    0.000    1.000  assigned to fragment   3
  25:      0.000    0.000    1.000  assigned to fragment   3
  26:      0.000    0.000    1.000  assigned to fragment   3

Summary assignment:
   4 orbitals assigned to fragment   1
   4 orbitals assigned to fragment   2
   4 orbitals assigned to fragment   3

PNO truncation parameters                   .... 
    PAOOverlapThresh   =        1.000e-08

Pair selection                          .... 
  modified with fragment specific keywords
  Pairs will be selected according to these
  intra(inter)fragment cutoffs
  1 <-> 1
    Intrafragment pairs 1 <-> 1 neglected for CCSD
  1 <-> 2
    TCutPairs          =        1.000e-05
    TCutPNO            =        3.330e-07
    TCutMKN            =        1.000e-02
    TCutDO             =        2.000e-02
    TCutPNOSingles     =        9.990e-09
    TCutMP2Pairs       =        1.000e-06
  1 <-> 3
    TCutPairs          =        1.000e-05
    TCutPNO            =        3.330e-07
    TCutMKN            =        1.000e-02
    TCutDO             =        2.000e-02
    TCutPNOSingles     =        9.990e-09
    TCutMP2Pairs       =        1.000e-06
  2 <-> 2
    Intrafragment pairs 2 <-> 2 neglected for CCSD
  2 <-> 3
    TCutPairs          =        1.000e-05
    TCutPNO            =        3.330e-07
    TCutMKN            =        1.000e-02
    TCutDO             =        2.000e-02
    TCutPNOSingles     =        9.990e-09
    TCutMP2Pairs       =        1.000e-06
  3 <-> 3
    Intrafragment pairs 3 <-> 3 neglected for CCSD

Type of local MP2 treatment                 .... semi-local MP2
Strategy for PNO selection                  .... occupation number selection
Pair density normalization                  .... MP2 norm
Spin component scaling                      .... not used

   .... Finished loop over pairs
Making pair pair interaction lists          ... done

                       ===========================
                         35 OF   60 PAIRS ARE KEPT CCSD PAIRS
                         13 OF   60 PAIRS ARE KEPT MP2 PAIRS
                         12 OF   60 PAIRS ARE SKIPPED
                       ===========================

Total time spent in the initial guess                 ...     0.163 sec
SL-MP2 correlation energy (all non-screened pairs)    ...      -0.001338357759 Eh

Initial PNO correlation energy                        ...      -0.001222576590 Eh
sum of pair energies prescreened and skipped MP2 pairs...       0.000000000000 Eh
sum of pair energies of crude MP2 skipped pairs only  ...       0.000000000000 Eh
sum of MP2 pair energies for pairs that were not kept ...      -0.000082253253 Eh
sum of PNO error estimates for the kept pairs         ...      -0.000033527917 Eh
                                                          --------------------
sum of all corrections                                         -0.000115781169
Initial total correlation energy                               -0.001338357759
Thresholds for map construction and integral transformation for fine MP2 and CCSD(T) calculation:
   TCutMKN   ...     1.0e-03
   TCutDO    ...     1.0e-02
   TCutPairs ...     1.0e-05
   TCutCMO   ...     1.0e-03
   TCutCPAO  ...     1.0e-03

--------------------------------
LOCAL RI TRANSFORMATION (IAVPAO)
--------------------------------

Orbital window:      15 to 26
Number of PAOs:      81
Basis functions:     81 (33 shells)
Aux. functions:     276 (84 shells)
Use SHARK:           on
Have SHARK:         yes

Processing maps (0.0 sec)
Average map sizes:
   Aux shells -> MOs              12.0
   Aux shells -> PAOs             81.0
   MOs        -> AO shells        28.4
   PAOs       -> AO shells        33.0

Calculating integrals (0.1 sec, 2.050 MB)
Sorting integrals (0.0 sec, 2.047 MB)
Total time for the integral transformation: 0.1 sec
--------------------------------
INITIAL GUESS AND PNO GENERATION
--------------------------------

Populations of internal orbitals onto Fragments:
  15:      1.000    0.000    0.000  assigned to fragment   1
  16:      1.000    0.000    0.000  assigned to fragment   1
  17:      1.000    0.000    0.000  assigned to fragment   1
  18:      1.000    0.000    0.000  assigned to fragment   1
  19:      0.000    1.000    0.000  assigned to fragment   2
  20:      0.000    1.000    0.000  assigned to fragment   2
  21:      0.000    1.000    0.000  assigned to fragment   2
  22:      0.000    1.000    0.000  assigned to fragment   2
  23:      0.000    0.000    1.000  assigned to fragment   3
  24:      0.000    0.000    1.000  assigned to fragment   3
  25:      0.000    0.000    1.000  assigned to fragment   3
  26:      0.000    0.000    1.000  assigned to fragment   3

Summary assignment:
   4 orbitals assigned to fragment   1
   4 orbitals assigned to fragment   2
   4 orbitals assigned to fragment   3

PNO truncation parameters                   .... 
    PAOOverlapThresh   =        1.000e-08

Pair selection                          .... 
  modified with fragment specific keywords
  Pairs will be selected according to these
  intra(inter)fragment cutoffs
  1 <-> 1
    Intrafragment pairs 1 <-> 1 neglected for CCSD
  1 <-> 2
    TCutPairs          =        1.000e-05
    TCutPNO            =        3.330e-07
    TCutMKN            =        1.000e-03
    TCutDO             =        1.000e-02
    TCutPNOSingles     =        9.990e-09
    TCutMP2Pairs       =        1.000e-06
  1 <-> 3
    TCutPairs          =        1.000e-05
    TCutPNO            =        3.330e-07
    TCutMKN            =        1.000e-03
    TCutDO             =        1.000e-02
    TCutPNOSingles     =        9.990e-09
    TCutMP2Pairs       =        1.000e-06
  2 <-> 2
    Intrafragment pairs 2 <-> 2 neglected for CCSD
  2 <-> 3
    TCutPairs          =        1.000e-05
    TCutPNO            =        3.330e-07
    TCutMKN            =        1.000e-03
    TCutDO             =        1.000e-02
    TCutPNOSingles     =        9.990e-09
    TCutMP2Pairs       =        1.000e-06
  3 <-> 3
    Intrafragment pairs 3 <-> 3 neglected for CCSD

Type of local MP2 treatment                 .... semi-local MP2
Strategy for PNO selection                  .... occupation number selection
Pair density normalization                  .... MP2 norm
Spin component scaling                      .... not used

   .... Finished loop over pairs

 PNO Occupation Number Statistics: 
  | Av. % of trace(Dij) retained        ...  98.420344718245
  | sigma^2 in % of trace(Dij) retained ...   3.10e-01
  | Av. % of trace(Di) retained         ...  99.999941092181
  | sigma^2 in % of trace(Di) retained  ...   1.82e-09
 Distributions of % trace(Dij) recovered:
  |   [90.0, 99.0) ...    28 ( 80.0 % of all pairs)
  |   [99.0, 99.9) ...     7 ( 20.0 % of all pairs)
 Distributions of % trace(Di) recovered :
  |       >= 99.9  ...    12 (100.0 % of all I-pairs )

Making pair pair interaction lists          ... done

                       ===========================
                         35 OF   60 PAIRS ARE KEPT
                       ===========================

Total time spent in the initial guess                 ...     0.185 sec
SL-MP2 correlation energy (all non-screened pairs)    ...      -0.001338361319 Eh

Initial PNO correlation energy                        ...      -0.001222578731 Eh
sum of pair energies estimated for screened out pairs ...       0.000000000000 Eh
sum of MP2 pair energies for pairs that were not kept ...      -0.000082254544 Eh
sum of PNO error estimates for the kept pairs         ...      -0.000033528044 Eh
                                                          --------------------
sum of all corrections                                         -0.000115782588
Initial total correlation energy                               -0.001338361319
Thresholds for map construction and integral transformation for fine MP2 and CCSD(T) calculation:
   TCutMKN   ...     1.0e-03
   TCutDO    ...     1.0e-02
   TCutPairs ...     1.0e-05
   TCutCMO   ...     1.0e-03
   TCutCPAO  ...     1.0e-03

Time for aux screen maps:            0.000
Time for maps after fine MP2:            0.001
-----------------------------
LOCAL RI TRANSFORMATION (IJV)
-----------------------------

Orbital window:      15 to 26
Basis functions:     81 (33 shells)
Aux. functions:     276 (84 shells)
Use SHARK:           on

Processing maps (0.0 sec)
Average map sizes:
   Aux shells -> MOs(i)           10.7
   Aux shells -> MOs(j)           12.0
   MOs        -> AO shells        28.4

Calculating integrals NOTE: Switching SHARK to General Contraction for MDCI
      If that is not desired please turn off the PGCFlag in the input (%shark PGCFlag 0 end)
(0.7 sec, 0.273 MB)
Sorting integrals (0.0 sec, 0.270 MB)
Total time for the integral transformation: 0.7 sec
--------------------------------
LOCAL RI TRANSFORMATION (VABPAO)
--------------------------------

Number of PAOs:      81
Basis functions:     81 (33 shells)
Aux. functions:     276 (84 shells)
Use SHARK:           on

Processing maps (0.0 sec)
Average map sizes:
   Aux shells -> PAOs             81.0
   PAOs       -> AO shells        33.0

Calculating integrals NOTE: Switching SHARK to General Contraction for MDCI
      If that is not desired please turn off the PGCFlag in the input (%shark PGCFlag 0 end)
(0.7 sec, 13.819 MB)
Finished


-------------------------------------
Pair Pair Term precalculation with     
RI-(ij|mn) and (im|jn) transformation  
ON THE FLY                             
-------------------------------------

   IBatch   1 (of   1)              ... done (    0.355 sec)
Total EXT                           ...           0.355 sec

IAVPA Available = YES
VABPAO Available= YES
IJV Available   = YES
IJK Available   = NO
PNO3i Available = YES
PNO3j Available = YES
PNO4 Available  = YES
---------------------
RI-PNO TRANSFORMATION
---------------------

Total Number of PNOs                   ...   222
Average number of PNOs per pair        ...     6
Maximal number of PNOs per pair        ...     8
   #pairs with  1 -  5 PNOs   :    0
   #pairs with  6 - 10 PNOs   :   35
   #pairs with 11 - 15 PNOs   :    0
   #pairs with 16 - 20 PNOs   :    0
   #pairs with 21 - 25 PNOs   :    0
   #pairs with 26 - 30 PNOs   :    0
   #pairs with 31 - 35 PNOs   :    0
   #pairs with 36 - 40 PNOs   :    0
   #pairs with 41 - 45 PNOs   :    0
   #pairs with 46 - 50 PNOs   :    0

Generation of (ij|ab)[P] integrals            ... on
Generation of (ia|bc)[P],(ja|bc)[P] integrals ... on
Storage of 3 and 4 external integrals         ... on
Generation of ALL (ka|bc)[P] integrals        ... on
Keep RI integrals in memory                   ... off

Ibatch:  1 (of  1)
Starting 2-4 index PNO integral generation ... done

Timings:
Total PNO integral transformation time     ...          0.540 sec
Size of the 3-external file                ...         0 MB
Size of the 4-external file                ...         0 MB
Size of the IKJL file                      ...         0 MB
Size of the all 3-external file            ...         0 MB
Size of the 1-external file                ...         0 MB

Making pair/pair overlap matrices          ... done (    0.106 sec)
Size of the pair overlap file              ... 0 MB
Redoing the guess amplitudes               ... done (    0.001 sec)

-------------------------
FINAL STARTUP INFORMATION
-------------------------

E(0)                                       ...  -1580.402136713
E(SL-MP2)                                  ...     -0.001338361
E(SL-MP2) including corrections            ...     -0.001338361
Initial E(tot)                             ...  -1580.403475074
<T|T>                                      ...      0.000471965
Number of pairs included                   ... 35
Total number of pairs                      ... 78

------------------------------------------------
                  RHF COUPLED CLUSTER ITERATIONS
------------------------------------------------

Number of PNO amplitudes to be optimized   ...         1418
Number of non-PNO amplitudes               ...       102060
Untruncated number of regular amplitudes   ...       227448

Iter       E(tot)           E(Corr)          Delta-E          Residual     Time
  0  -1580.403474955     -0.001222459      0.000115902      0.000446210    0.13
                           *** Turning on DIIS ***
  1  -1580.403491940     -0.001239445     -0.000016986      0.000062685    0.11
  2  -1580.403500516     -0.001248020     -0.000008576      0.000019135    0.11
  3  -1580.403501529     -0.001249033     -0.000001013      0.000003547    0.11
  4  -1580.403501585     -0.001249090     -0.000000056      0.000000694    0.13
               --- The Coupled-Cluster iterations have converged ---

----------------------
COUPLED CLUSTER ENERGY
----------------------

E(0)                                       ...  -1580.402136713
E(CORR)(strong-pairs)                      ...     -0.001249090
E(CORR)(weak-pairs)                        ...     -0.000115783
E(CORR)(corrected)                         ...     -0.001364872
E(TOT)                                     ...  -1580.403501585
Singles Norm <S|S>**1/2                    ...      0.000603053  
T1 diagnostic                              ...      0.000123098  

------------------
LARGEST AMPLITUDES
------------------
  25-> 27  15-> 27       0.001394
  25-> 27  18-> 27       0.001323
  25-> 27  18-> 32       0.001192
  25-> 27  16-> 27       0.001153
  25-> 27  16-> 32       0.001133
  25-> 27  17-> 32       0.001081
  24-> 27  15-> 27       0.001080
  25-> 27  15-> 30       0.001080
  26-> 27  15-> 27       0.001071
  24-> 32  15-> 27       0.001068
  24-> 27  18-> 27       0.001046
  25-> 30  15-> 27       0.001014
  26-> 28  18-> 28       0.001010
  23-> 27  20-> 27       0.000989
  26-> 32  15-> 27       0.000983
  23-> 27  22-> 32       0.000975


 ===========================================================
         LOCAL ENERGY DECOMPOSITION FOR DLPNO-CC METHODS
 ===========================================================

Maximum Iterations for the Localization .. 600
Tolerance for the Localization          ..  1.00e-06
Number of fragments = 3
Fragment  1:  0
Fragment  2:  1
Fragment  3:  2

Populations of internal orbitals onto Fragments:
   0:      1.000    0.000    0.000  assigned to fragment   1
   1:      1.000    0.000    0.000  assigned to fragment   1
   2:      1.000    0.000    0.000  assigned to fragment   1
   3:      1.000    0.000    0.000  assigned to fragment   1
   4:      1.000    0.000    0.000  assigned to fragment   1
   5:      0.000    1.000    0.000  assigned to fragment   2
   6:      0.000    1.000    0.000  assigned to fragment   2
   7:      0.000    1.000    0.000  assigned to fragment   2
   8:      0.000    1.000    0.000  assigned to fragment   2
   9:      0.000    1.000    0.000  assigned to fragment   2
  10:      0.000    0.000    1.000  assigned to fragment   3
  11:      0.000    0.000    1.000  assigned to fragment   3
  12:      0.000    0.000    1.000  assigned to fragment   3
  13:      0.000    0.000    1.000  assigned to fragment   3
  14:      0.000    0.000    1.000  assigned to fragment   3
  15:      1.000    0.000    0.000  assigned to fragment   1
  16:      1.000    0.000    0.000  assigned to fragment   1
  17:      1.000    0.000    0.000  assigned to fragment   1
  18:      1.000    0.000    0.000  assigned to fragment   1
  19:      0.000    1.000    0.000  assigned to fragment   2
  20:      0.000    1.000    0.000  assigned to fragment   2
  21:      0.000    1.000    0.000  assigned to fragment   2
  22:      0.000    1.000    0.000  assigned to fragment   2
  23:      0.000    0.000    1.000  assigned to fragment   3
  24:      0.000    0.000    1.000  assigned to fragment   3
  25:      0.000    0.000    1.000  assigned to fragment   3
  26:      0.000    0.000    1.000  assigned to fragment   3

Summary assignment:
   9 orbitals assigned to fragment   1
   9 orbitals assigned to fragment   2
   9 orbitals assigned to fragment   3


--------------------------------
CORRELATION ENERGY DECOMPOSITION
--------------------------------


--------------------------------------------------
INTER- vs INTRA-FRAGMENT CORRELATION ENERGIES (Eh)
--------------------------------------------------

                                   Fragment   1            Fragment   2            Fragment   3            
                         ----------------------  ----------------------  ----------------------  
Intra strong pairs               0.000000000000         0.000000000000         0.000000000000  sum=        0.000000000000
Intra weak pairs                 0.000000000000         0.000000000000         0.000000000000  sum=        0.000000000000
Singles contribution            -0.000000000082        -0.000000000007        -0.000000000079  sum=       -0.000000000168
                         ----------------------  ----------------------  ----------------------  
                                -0.000000000082        -0.000000000007        -0.000000000079  sum=       -0.000000000168


Interaction correlation for Fragments   2 and   1:
--------------------------------------------------
Inter strong pairs               -0.000039669102 (   -0.025 kcal/mol)
Inter weak pairs                 -0.000082531822 (   -0.052 kcal/mol)
                          ----------------------
Total interaction                -0.000122200924 (   -0.077 kcal/mol)

Interaction correlation for Fragments   3 and   1:
--------------------------------------------------
Inter strong pairs               -0.000805921002 (   -0.506 kcal/mol)
Inter weak pairs                 -0.000023793137 (   -0.015 kcal/mol)
                          ----------------------
Total interaction                -0.000829714140 (   -0.521 kcal/mol)
Interaction correlation for Fragments   3 and   2:
--------------------------------------------------
Inter strong pairs               -0.000403499333 (   -0.253 kcal/mol)
Inter weak pairs                 -0.000009457629 (   -0.006 kcal/mol)
                          ----------------------
Total interaction                -0.000412956962 (   -0.259 kcal/mol)



Sum of INTRA-fragment correlation energies  =        -0.000000000168
Sum of INTER-fragment correlation energies  =        -0.001364872026
                                              ---------------------
Total correlation energy                    =        -0.001364872194

---------------------------------------------
DECOMPOSITION OF CCSD STRONG PAIRS INTO      
    DOUBLE EXCITATION TYPES (Eh)             
---------------------------------------------

Foster-Boys localization is used for localizing PNOs

Intra fragment contributions: 
INTRA Fragment 1                        0.000000000 
INTRA Fragment 2                        0.000000000 
INTRA Fragment 3                        0.000000000 

Charge transfer contributions: 
Charge Transfer 1 to 2                 -0.000000054 
Charge Transfer 1 to 3                 -0.000037610 
Charge Transfer 2 to 1                 -0.000000040 
Charge Transfer 2 to 3                 -0.000001467 
Charge Transfer 3 to 1                 -0.000018733 
Charge Transfer 3 to 2                 -0.000001416 

Dispersion contributions: 
Dispersion  2,1                        -0.000039575 
Dispersion  3,1                        -0.000749578 
Dispersion  3,2                        -0.000400617 

Singles contributions:                   
Singles energy                         -0.000000000 
 
Delocalized contributions: 
Delocalized correlation                 0.000000000 

#Time for LED analysis ..       0.0 (sec)



--------------------------------------------------------------------------------
                                    TIMINGS
--------------------------------------------------------------------------------


Total execution time                   ...        7.688 sec

Localization of occupied MO's          ...        0.220 sec (  2.9%)
Fock Matrix Formation                  ...        2.427 sec ( 31.6%)
Global overlap, Fock, MKN matrices     ...        0.279 sec (  3.6%)
Differential overlap integrals         ...        0.509 sec (  6.6%)
Organizing maps                        ...        0.002 sec (  0.0%)
RI 3-index integral generations        ...        1.588 sec ( 20.6%)
RI-PNO integral transformation         ...        1.009 sec ( 13.1%)
Initial Guess                          ...        0.353 sec (  4.6%)
DIIS Solver                            ...        0.009 sec (  0.1%)
State Vector Update                    ...        0.000 sec (  0.0%)
Sigma-vector construction              ...        0.582 sec (  7.6%)
  <D|H|D>(0-ext)                       ...        0.083 sec ( 14.3% of sigma)
  <D|H|D>(2-ext Fock)                  ...        0.001 sec (  0.2% of sigma)
  <D|H|D>(2-ext)                       ...        0.047 sec (  8.2% of sigma)
  <D|H|D>(4-ext)                       ...        0.004 sec (  0.8% of sigma)
  <D|H|D>(4-ext-corr)                  ...        0.013 sec (  2.2% of sigma)
  CCSD doubles correction              ...        0.014 sec (  2.5% of sigma)
  <S|H|S>                              ...        0.073 sec ( 12.5% of sigma)
  <S|H|D>(1-ext)                       ...        0.046 sec (  7.9% of sigma)
  <D|H|S>(1-ext)                       ...        0.002 sec (  0.3% of sigma)
  <S|H|D>(3-ext)                       ...        0.005 sec (  0.9% of sigma)
  Fock-dressing                        ...        0.194 sec ( 33.4% of sigma)
  Singles amplitudes                   ...        0.012 sec (  2.0% of sigma)
  (ik|jl)-dressing                     ...        0.052 sec (  8.9% of sigma)
  (ij|ab),(ia|jb)-dressing             ...        0.026 sec (  4.5% of sigma)
Local Energy Decomposition             ...        0.046 sec (  0.6% of ALL)


Maximum memory used throughout the entire MDCI-calculation: 51.3 MB
----------------------------   ----------------
Inter-fragment dispersion       -0.001305552
----------------------------   ----------------


-------------------------   --------------------
FINAL SINGLE POINT ENERGY     -1580.403442265158 
-------------------------   --------------------


------------------------------------------------------------------------------
                              ORCA PROPERTY CALCULATIONS
------------------------------------------------------------------------------

GBWName                                 ... AR3LD_4.0_3.6_4.8.gbw
Number of atoms                         ...      3
Number of basis functions               ...    150
Max core memory                         ...   1024 MB

Electric properties:
Dipole moment                           ... YES
Quadrupole moment                       ...  NO
Static polarizability (Dipole/Dipole)   ...  NO
Static polarizability (Dipole/Quad.)    ...  NO
Static polarizability (Quad./Quad.)     ...  NO
Static polarizability (Velocity)        ...  NO

Atomic electric properties:
Dipole moment                           ...  NO
Quadrupole moment                       ...  NO
Static polarizability                   ...  NO

Choice of electric origin               ... Center of mass
Position of electric origin             ...     4.335872     1.849372     0.000000

General magnetic properties:
Magnetizability                         ...  NO

EPR properties:
g-Tensor (aka g-matrix)                 ...  NO
Zero-Field splitting spin-orbit         ...  NO
Zero-field splitting spin-spin          ...  NO
Hyperfine couplings                     ...  NO (   0 nuclei)
Quadrupole couplings                    ...  NO (   0 nuclei)
Contact density                         ...  NO (   0 nuclei)

NMR properties:
Chemical shifts                         ...  NO (   0 nuclei)
Spin-rotation constants                 ...  NO (   0 nuclei)
Spin-spin couplings                     ...  NO (   0 nuclei,    0 pairs)

Choice of magnetic origin               ... GIAO
Position of magnetic origin             ...     0.000000     0.000000     0.000000

Properties with geometric perturbations:
SCF Hessian                             ...  NO
IR spectrum                             ...  NO
VCD spectrum                            ...  NO
X-ray spectroscopy properties:
SCF XES/XAS/RIXS spectra                ...  NO


-------------
DIPOLE MOMENT
-------------

Method             : SCF
Type of density    : Electron Density
Multiplicity       :   1
Irrep              :   0
Energy             : -1580.4021367130837916 Eh
Relativity type    : 
Basis              : AO
                                X                 Y                 Z
Electronic contribution:      0.000170478       0.000233657       0.000000000
Nuclear contribution   :      0.000000000      -0.000000000       0.000000000
                        -----------------------------------------
Total Dipole Moment    :      0.000170478       0.000233657       0.000000000
                        -----------------------------------------
Magnitude (a.u.)       :      0.000289237
Magnitude (Debye)      :      0.000735183



--------------------
Rotational spectrum 
--------------------
 
Rotational constants in cm-1:             0.074275             0.036216             0.024346 
Rotational constants in MHz :          2226.716799          1085.739528           729.861531 

Dipole components along the rotational axes: 
x,y,z [a.u.] :    -0.000145     0.000250     0.000000 
x,y,z [Debye]:    -0.000369     0.000636     0.000000 

 

Dipole moment calculation done in   0.0 sec 

Maximum memory used throughout the entire PROP-calculation: 6.8 MB

--------------------------------
SUGGESTED CITATIONS FOR THIS RUN
--------------------------------

Below you find a list of papers that are relevant to this ORCA run
We neither can nor want to force you to cite these papers, but we appreciate if you do
You receive ORCA, which is the product of decades of hard work by many enthusiastic individuals, for free
The only thing we kindly ask in return is that you cite our papers,
We deeply appreciate it, if you show your appreciation for ORCA by not just citing the generic ORCA reference.

Please note that relegating all ORCA citations to the supporting information does *not* help us.
SI sections are not indexed - citations you put there will not count into any citation statistics
But we need these citations in order to attract the funding resources that allow us to do what we are doing

Therefore, if you are a happy ORCA user, please consider citing a few of the papers listed below in the main body of your paper

In addition to the list printed below, the program has created the file AR3LD_4.0_3.6_4.8.bibtex that contains the list in bibtex format
You can import this file easily into all common literature databanks and citation aid programs


List of essential papers. We consider these as the minimum necessary citations

  1. Neese,F.
     Software update: the ORCA program system, version 5.0
     WIRES Comput. Molec. Sci., 2022 12(1)e1606
     doi.org/10.1002/wcms.1606

List of papers to cite with high priority. The work reported in these papers was absolutely
necessary for this run to complete.
Our perspective: the developers of density functionals and basis sets usually get cited in chemistry papers
Good! But without the algorithms to do something with them, the functionals or basis sets would not do anything.
Hence, in our opinion, the algorithm design and method developments papers are equally worthy of getting cited

  1. Neese,F.; Hansen,A.; Liakos,D.G.
     Efficient and accurate approximations to the local coupled cluster singles doubles method using a truncated pair natural orbital basis
     J. Chem. Phys., 2009 131 064103
     doi.org/10.1063/1.3173827
  2. Neese,F.; Wennmohs,F.; Hansen,A.
     Efficient and accurate local approximations to coupled-electron pair approaches: An attempt to revive the pair natural orbital method
     J. Chem. Phys., 2009 130 114108
     doi.org/10.1063/1.3086717
  3. Riplinger,C.; Neese,F.
     An efficient and near linear scaling pair natural orbital based local coupled cluster method
     J. Chem. Phys., 2013 138(3)Art. No. 034106
     doi.org/10.1063/1.4773581
  4. Datta,D.; Kossmann,S.; Neese,F.
     Analytic energy derivatives for the calculation of the first-order molecular properties using the domain-based local pair-natural orbital coupled-cluster theory
     J. Chem. Phys., 2016 145 
     doi.org/10.1063/1.4962369
  5. Riplinger,C.; Pinski,P.; Becker,U.; Valeev,E.F.; Neese,F.
     Sparse maps-A systematic infrastructure for reduced-scaling electronic structure methods. II. Linear scaling domain based pair natural orbital coupled cluster theory
     J. Chem. Phys., 2016 144 
     doi.org/10.1063/1.4939030
  6. Schneider,W.B.; Bistoni,G.; Sparta,M.; Saitow,M.; Riplinger,C.; Auer,A.A.; Neese,F.
     Decomposition of Intermolecular Interaction Energies within the Local Pair Natural Orbital Coupled Cluster Framework
     J. Theo. Comp. Chem., 2016 12 4778-4792
     doi.org/10.1021/acs.jctc.6b00523
  7. Bistoni,G.; Riplinger,C.; Minenkov,Y.; Cavallo,L.; Auer,A.A.; Neese,F.
     Treating Subvalence Correlation Effects in Domain Based Pair Natural Orbital Coupled Cluster Calculations: An Out-of-the-Box Approach
     J. Theo. Comp. Chem., 2017 13 3220-3227
     doi.org/10.1021/acs.jctc.7b00352
  8. Altun,A.; Neese,F.; Bistoni,G.
     HFLD: A Nonempirical London Dispersion-Corrected Hartree-Fock Method for the Quantification and Analysis of Noncovalent Interaction Energies of Large Molecular Systems
     J. Chem. Theory Comput., 2019 15 5894-5907
     doi.org/10.1021/acs.jctc.9b00425
  9. Neese,F.
     The SHARK Integral Generation and Digestion System
     J. Comp. Chem., 2022  1-16
     doi.org/10.1002/jcc.26942
 10. Altun,A.; Neese,F.; Bistoni,G.
     Open-Shell Variant of the London Dispersion-Corrected Hartree–Fock Method (HFLD) for the Quantification and Analysis of Noncovalent Interaction Energies
     J. Chem. Theory Comput., 2022 XX XXXX-XXXX
     doi.org/10.1021/acs.jctc.1c01295

List of suggested additional citations. These are papers that are important in the 'surrounding' of 
of this run, or papers that preceded the highly important papers. If you like your results we are grateful for a citation.

  1. Neese,F.
     The ORCA program system
     WIRES Comput. Molec. Sci., 2012 2(1)73-78
     doi.org/10.1002/wcms.81
  2. Neese,F.
     Software update: the ORCA program system, version 4.0
     WIRES Comput. Molec. Sci., 2018 8(1)1-6
     doi.org/10.1002/wcms.1327
  3. Neese,F.; Wennmohs,F.; Becker,U.; Riplinger,C.
     The ORCA quantum chemistry program package
     J. Chem. Phys., 2020 152 Art. No. L224108
     doi.org/10.1063/5.0004608
  4. Bistoni,G.
     Finding chemical concepts in the Hilbert space: Coupled cluster analyses of noncovalent interactions
     WIRES Comput. Molec. Sci., 2020 10(3)e1442
     doi.org/10.1002/wcms.1442

List of optional additional citations

  1. Neese,F.
     Approximate second-order SCF convergence for spin unrestricted wavefunctions
     Chem. Phys. Lett., 2000 325(1-3)93-98
     doi.org/10.1016/s0009-2614(00)00662-x

Timings for individual modules:

Sum of individual times          ...       15.226 sec (=   0.254 min)
Startup calculation              ...        1.915 sec (=   0.032 min)  12.6 %
SCF iterations                   ...        5.300 sec (=   0.088 min)  34.8 %
Property integrals               ...        0.051 sec (=   0.001 min)   0.3 %
Property calculations            ...        0.224 sec (=   0.004 min)   1.5 %
MDCI module                      ...        7.735 sec (=   0.129 min)  50.8 %
                             ****ORCA TERMINATED NORMALLY****
TOTAL RUN TIME: 0 days 0 hours 0 minutes 15 seconds 317 msec
