
                                 *****************
                                 * O   R   C   A *
                                 *****************

                                            #,                                       
                                            ###                                      
                                            ####                                     
                                            #####                                    
                                            ######                                   
                                           ########,                                 
                                     ,,################,,,,,                         
                               ,,#################################,,                 
                          ,,##########################################,,             
                       ,#########################################, ''#####,          
                    ,#############################################,,   '####,        
                  ,##################################################,,,,####,       
                ,###########''''           ''''###############################       
              ,#####''   ,,,,##########,,,,          '''####'''          '####       
            ,##' ,,,,###########################,,,                        '##       
           ' ,,###''''                  '''############,,,                           
         ,,##''                                '''############,,,,        ,,,,,,###''
      ,#''                                            '''#######################'''  
     '                                                          ''''####''''         
             ,#######,   #######,   ,#######,      ##                                
            ,#'     '#,  ##    ##  ,#'     '#,    #''#        ,####,   ,####,        
            ##       ##  ##   ,#'  ##            #'  '#       #'       #'  '#        
            ##       ##  #######   ##           ,######,      #####,   #    #        
            '#,     ,#'  ##    ##  '#,     ,#' ,#      #,     #,   #   #,  ,#        
             '#######'   ##     ##  '#######'  #'      '#     '####' # '####'        



                #########################################################
                #                        -***-                          #
                #          Department of theory and spectroscopy        #
                #                                                       #
                #                      Frank Neese                      #
                #                                                       #
                #     Directorship, Architecture, Infrastructure        #
                #                    SHARK, DRIVERS                     #
                #        Core code/Algorithms in most modules           #
                #                                                       #
                #        Max Planck Institute fuer Kohlenforschung      #
                #                Kaiser Wilhelm Platz 1                 #
                #                 D-45470 Muelheim/Ruhr                 #
                #                      Germany                          #
                #                                                       #
                #                  All rights reserved                  #
                #                        -***-                          #
                #########################################################


                         Program Version 6.0.0  -   RELEASE  -


 With contributions from (in alphabetic order):
   Daniel Aravena         : Magnetic Suceptibility
   Michael Atanasov       : Ab Initio Ligand Field Theory (pilot matlab implementation)
   Alexander A. Auer      : GIAO ZORA, VPT2 properties, NMR spectrum
   Ute Becker             : All parallelization in ORCA, NUMFREQ, NUMCALC
   Giovanni Bistoni       : ED, misc. LED, open-shell LED, HFLD
   Martin Brehm           : Molecular dynamics
   Dmytro Bykov           : pre 5.0 version of the SCF Hessian
   Marcos Casanova-Páez   : Triplet and SCS-CIS(D). UHF-(DLPNO)-IP/EA/STEOM-CCSD. UHF-CVS-IP/STEOM-CCSD
   Vijay G. Chilkuri      : MRCI spin determinant printing, contributions to CSF-ICE
   Pauline Colinet        : FMM embedding
   Dipayan Datta          : RHF DLPNO-CCSD density
   Achintya Kumar Dutta   : EOM-CC, STEOM-CC
   Nicolas Foglia         : Exact transition moments, OPA infrastructure, MCD improvements
   Dmitry Ganyushin       : Spin-Orbit,Spin-Spin,Magnetic field MRCI
   Miquel Garcia          : C-PCM and meta-GGA Hessian, CCSD/C-PCM, Gaussian charge scheme
   Tiago L. C. Gouveia    : GS-ROHF, GS-ROCIS
   Yang Guo               : DLPNO-NEVPT2, F12-NEVPT2, CIM, IAO-localization
   Andreas Hansen         : Spin unrestricted coupled pair/coupled cluster methods
   Ingolf Harden          : AUTO-CI MPn and infrastructure 
   Benjamin Helmich-Paris : MC-RPA, TRAH-(SCF,CASSCF), AVAS, COSX integrals, SCF dyn. polar.
   Lee Huntington         : MR-EOM, pCC
   Robert Izsak           : Overlap fitted RIJCOSX, COSX-SCS-MP3, EOM
   Riya Kayal             : Wick's Theorem for AUTO-CI, AUTO-CI UHF-CCSDT
   Emily Kempfer          : AUTO-CI, RHF CISDT and CCSDT
   Christian Kollmar      : KDIIS, OOCD, Brueckner-CCSD(T), CCSD density, CASPT2, CASPT2-K, improved NEVPT2
   Axel Koslowski         : Symmetry handling
   Simone Kossmann        : Meta GGA functionals, TD-DFT gradient, OOMP2, (MP2 Hessian; deprecated post 5.0)
   Lucas Lang             : DCDCAS
   Marvin Lechner         : AUTO-CI (C++ implementation), FIC-MRCC
   Spencer Leger          : CASSCF response
   Dagmar Lenk            : GEPOL surface, SMD, ORCA-2-JSON
   Dimitrios Liakos       : Extrapolation schemes; Compound Job, initial MDCI parallelization
   Dimitrios Manganas     : Further ROCIS development; embedding schemes. LFT, Crystal Embedding
   Dimitrios Pantazis     : SARC Basis sets
   Anastasios Papadopoulos: AUTO-CI, single reference methods and gradients
   Taras Petrenko         : pre 6.0 DFT Hessian and TD-DFT gradient, (ASA, deprecated), ECA, 1-Electron XAS/XES, NRVS
   Peter Pinski           : DLPNO-MP2, DLPNO-MP2 Gradient
   Christoph Reimann      : Effective Core Potentials
   Marius Retegan         : Local ZFS, SOC
   Christoph Riplinger    : Optimizer, TS searches, QM/MM, DLPNO-CCSD(T), (RO)-DLPNO pert. Triples
   Michael Roemelt        : Original ROCIS implementation
   Masaaki Saitow         : Open-shell DLPNO-CCSD energy and density
   Barbara Sandhoefer     : DKH picture change effects
   Kantharuban Sivalingam : CASSCF convergence/infrastructure, NEVPT2 and variants, FIC-MRCI
   Bernardo de Souza      : ESD, SOC TD-DFT
   Georgi Stoychev        : AutoAux, RI-MP2 NMR, DLPNO-MP2 response, X2C
   Van Anh Tran           : RI-MP2 g-tensors
   Willem Van den Heuvel  : Paramagnetic NMR
   Zikuan Wang            : NOTCH, Electric field optimization 
   Frank Wennmohs         : Technical directorship and infrastructure
   Hang Xu                : AUTO-CI-Response properties 


 We gratefully acknowledge several colleagues who have allowed us to
 interface, adapt or use parts of their codes:
   Stefan Grimme, W. Hujo, H. Kruse, P. Pracht,  : VdW corrections, initial TS optimization,
                  C. Bannwarth, S. Ehlert,         DFT functionals, gCP, sTDA/sTD-DF
                  L. Wittmann, M. Mueller
   Ed Valeev, F. Pavosevic, A. Kumar             : LibInt (2-el integral package), F12 methods
   Garnet Chan, S. Sharma, J. Yang, R. Olivares  : DMRG
   Ulf Ekstrom                                   : XCFun DFT Library
   Mihaly Kallay                                 : mrcc  (arbitrary order and MRCC methods)
   Frank Weinhold                                : gennbo (NPA and NBO analysis)
   Simon Mueller                                 : openCOSMO-RS
   Christopher J. Cramer and Donald G. Truhlar   : smd solvation model
   Lars Goerigk                                  : TD-DFT with DH, B97 family of functionals
   V. Asgeirsson, H. Jonsson                     : NEB implementation
   FAccTs GmbH                                   : IRC, NEB, NEB-TS, DLPNO-Multilevel, CI-OPT
                                                   MM, QMMM, 2- and 3-layer-ONIOM, Crystal-QMMM,
                                                   LR-CPCM, SF, NACMEs, symmetry and pop. for TD-DFT,
                                                   nearIR, NL-DFT gradient (VV10), updates on ESD,
                                                   ML-optimized integration grids, MBIS, APM,
                                                   GOAT, DOCKER, SOLVATOR, interface openCOSMO-RS
   S Lehtola, MJT Oliveira, MAL Marques          : LibXC Library
   Liviu Ungur et al                             : ANISO software


 Your calculation uses the libint2 library for the computation of 2-el integrals
 For citations please refer to: http://libint.valeyev.net

 Your ORCA version has been built with support for libXC version: 6.2.2
 For citations please refer to: https://libxc.gitlab.io

 This ORCA versions uses:
   CBLAS   interface :  Fast vector & matrix operations
   LAPACKE interface :  Fast linear algebra routines
   SCALAPACK package :  Parallel linear algebra routines
   Shared memory     :  Shared parallel matrices
   BLAS/LAPACK       :  OpenBLAS 0.3.27  USE64BITINT DYNAMIC_ARCH NO_AFFINITY Haswell SINGLE_THREADED
        Core in use  :  Haswell
   Copyright (c) 2011-2014, The OpenBLAS Project


================================================================================

----- Orbital basis set information -----
Your calculation utilizes the basis: aug-cc-pVTZ 
    H, B-Ne : Obtained from the ccRepo (grant-hill.group.shef.ac.uk/ccrepo) Feb. 2017
              R. A. Kendall, T. H. Dunning, Jr., R. J. Harrison, J. Chem. Phys. 96, 6796 (1992)
         He : Obtained from the ccRepo (grant-hill.group.shef.ac.uk/ccrepo) Feb. 2017
              D. E. Woon, T. H. Dunning, Jr., J. Chem. Phys. 100, 2975 (1994)
  Li-Be, Na : Obtained from the ccRepo (grant-hill.group.shef.ac.uk/ccrepo) Feb. 2017
              B. P. Prascher, D. E. Woon, K. A. Peterson, T. H. Dunning, Jr., A. K. Wilson, Theor. Chem. Acc. 128, 69 (2011)
         Mg : Obtained from the Peterson Research Group Website (tyr0.chem.wsu.edu/~kipeters) Feb. 2017
              B. P. Prascher, D. E. Woon, K. A. Peterson, T. H. Dunning, Jr., A. K. Wilson, Theor. Chem. Acc. 128, 69 (2011)
      Al-Ar : Obtained from the ccRepo (grant-hill.group.shef.ac.uk/ccrepo) Feb. 2017
              D. E. Woon, T. H. Dunning, Jr., J. Chem. Phys. 98, 1358 (1993)
      Sc-Zn : Obtained from the ccRepo (grant-hill.group.shef.ac.uk/ccrepo) Feb. 2017
              N. B. Balabanov, K. A. Peterson, J. Chem. Phys. 123, 064107 (2005)
              N. B. Balabanov, K. A. Peterson, J. Chem. Phys. 125, 074110 (2006)
      Ga-Kr : Obtained from the ccRepo (grant-hill.group.shef.ac.uk/ccrepo) Feb. 2017
              A. K. Wilson, D. E. Woon, K. A. Peterson, T. H. Dunning, Jr., J. Chem. Phys. 110, 7667 (1999)
     Ag, Au : Obtained from the Peterson Research Group Website (tyr0.chem.wsu.edu/~kipeters) Feb. 2017
              K. A. Peterson, C. Puzzarini, Theor. Chem. Acc. 114, 283 (2005)

================================================================================
                                        WARNINGS
                       Please study these warnings very carefully!
================================================================================

WARNING: Old DensityContainer found on disk!
         Will remove this file - 
         If you want to keep old densities, please start your calculation with a different basename. 


WARNING: The frozen-core approximation for MP2-gradient calculations is turned on by default.

WARNING: Geometry Optimization
  ===> : Switching off AutoStart
         For restart on a previous wavefunction, please use MOREAD

================================================================================
                                       INPUT FILE
================================================================================
NAME = HCl2.inp
|  1> 
|  2>     ! HF MP2 aug-cc-pVTZ TightSCF Opt 
|  3>      
|  4>     * xyz 0 1
|  5>     Cl      1.104182     0.637500     0.000000 
|  6>     H       0.000000     0.000000     0.000000 
|  7> 
|  8>     Cl      3.904182     0.637500     0.000000
|  9>     H       5.008364     0.000000     0.000000 
| 10>     *
| 11> 
| 12>     %geom
| 13>         Constraints
| 14>             { B 1 0 C }  # Fix H-Cl bond distance in the first HCl
| 15>             { B 3 2 C }  # Fix H-Cl bond distance in the second HCl
| 16>             { A 2 0 1 C }  # Fix the H1-Cl1-Cl3 angle
| 17>             { A 0 2 3 C }  # Fix the H2-Cl2-Cl3 angle
| 18>             
| 19>         end
| 20>         Scan
| 21>             B 1 2 = 2.8, 5, 5  # Vary the Cl-Cl distance
| 22>         end
| 23>     end
| 24>  
| 25>     %mp2
| 26>         Density relaxed
| 27>     end
| 28> 
| 29>     %scf
| 30>         ConvForced true  # Ensure SCF convergence
| 31>     end
| 32> 
| 33>                               ****END OF INPUT****
================================================================================

                       ******************************
                       *    Relaxed Surface Scan    *
                       ******************************

                      Bond (  2,   1):   range=   2.80000000 ..   5.00000000  steps =    5

There is 1 parameter to be scanned.
There will be    5 constrained geometry optimizations.


         *************************************************************
         *               RELAXED SURFACE SCAN STEP   1               *
         *                                                           *
         *                 Bond (  2,   1)  :   2.80000000           *
         *************************************************************

Geometry optimization settings:
Update method            Update   .... BFGS
Choice of coordinates    CoordSys .... (2022) Redundant Internals
Initial Hessian          InHess   .... Almloef's Model
Max. no of cycles        MaxIter  .... 50

Convergence Tolerances:
Energy Change            TolE     ....  5.0000e-06 Eh
Max. Gradient            TolMAXG  ....  3.0000e-04 Eh/bohr
RMS Gradient             TolRMSG  ....  1.0000e-04 Eh/bohr
Max. Displacement        TolMAXD  ....  4.0000e-03 bohr
RMS Displacement         TolRMSD  ....  2.0000e-03 bohr
Strict Convergence                .... False

------------------------------------------------------------------------------
                        ORCA OPTIMIZATION COORDINATE SETUP
------------------------------------------------------------------------------

The optimization will be done in redundant internal coordinates (2022)
Making redundant internal coordinates   ...  (2022 redundants) done
Evaluating the initial hessian          ...  (Almloef) done
Evaluating the coordinates              ...  done
Calculating the B-matrix                .... done
Calculating the G-matrix                .... done
Diagonalizing the G-matrix              .... done
Will constrain atom 0 coordinate 1 
Will constrain atom 0 coordinate 2 
Will constrain atom 1 coordinate 1 
Will constrain atom 1 coordinate 2 
Will constrain atom 2 coordinate 1 
Will constrain atom 2 coordinate 2 
Will constrain atom 3 coordinate 1 
Will constrain atom 3 coordinate 2 
The first mode is                       ....    1
The number of degrees of freedom        ....    6
Storing new coordinates                 .... done

    -----------------------------------------------------------------
                    Redundant Internal Coordinates


    -----------------------------------------------------------------
         Definition                    Initial Value    Approx d2E/dq
    -----------------------------------------------------------------
      1. B(H   1,Cl  0)                  1.2750         0.409509 C 
      2. B(Cl  2,Cl  0)                  1.6223         0.017708   
      3. B(Cl  2,H   1)                  2.8000         0.000022 C 
      4. B(H   3,Cl  2)                  1.2750         0.409509 C 
      5. A(H   1,Cl  0,Cl  2)          150.0000         0.234865 C 
      6. A(Cl  0,Cl  2,H   3)          150.0000         0.234865 C 
      7. D(H   3,Cl  2,Cl  0,H   1)     -0.0000         0.001503   
    -----------------------------------------------------------------

Number of atoms                         .... 4
Number of degrees of freedom            .... 7


         *************************************************************
         *                GEOMETRY OPTIMIZATION CYCLE   1            *
         *************************************************************
---------------------------------
CARTESIAN COORDINATES (ANGSTROEM)
---------------------------------
  Cl     1.693042    0.637500    0.000000
  H      0.588860   -0.000000   -0.000000
  Cl     3.315322    0.637500   -0.000000
  H      4.419504   -0.000000    0.000000

----------------------------
CARTESIAN COORDINATES (A.U.)
----------------------------
  NO LB      ZA    FRAG     MASS         X           Y           Z
   0 Cl   17.0000    0    35.453    3.199386    1.204700    0.000000
   1 H     1.0000    0     1.008    1.112784   -0.000000   -0.000000
   2 Cl   17.0000    0    35.453    6.265050    1.204700   -0.000000
   3 H     1.0000    0     1.008    8.351652   -0.000000    0.000000

--------------------------------
INTERNAL COORDINATES (ANGSTROEM)
--------------------------------
 Cl     0   0   0     0.000000000000     0.00000000     0.00000000
 H      1   0   0     1.274999662402     0.00000000     0.00000000
 Cl     1   2   0     2.800000000000   149.99999124     0.00000000
 H      3   1   2     1.274999662402   149.99999124     0.00000000

---------------------------
INTERNAL COORDINATES (A.U.)
---------------------------
 Cl     0   0   0     0.000000000000     0.00000000     0.00000000
 H      1   0   0     2.409400182781     0.00000000     0.00000000
 Cl     1   2   0     5.291233174980   149.99999124     0.00000000
 H      3   1   2     2.409400182781   149.99999124     0.00000000

---------------------
BASIS SET INFORMATION
---------------------
There are 2 groups of distinct atoms

 Group   1 Type Cl  : 42s17p3d2f contracted to 6s5p3d2f pattern {131313111/77111/111/11}
 Group   2 Type H   : 6s3p2d contracted to 4s3p2d pattern {3111/111/11}

Atom   0Cl   basis set group =>   1
Atom   1H    basis set group =>   2
Atom   2Cl   basis set group =>   1
Atom   3H    basis set group =>   2
------------------------------------------------------------------------------
                             ORCA STARTUP CALCULATIONS
------------------------------------------------------------------------------
------------------------------------------------------------------------------
                   ___                                                        
                  /   \      - P O W E R E D   B Y -                         
                 /     \                                                     
                 |  |  |   _    _      __       _____    __    __             
                 |  |  |  | |  | |    /  \     |  _  \  |  |  /  |          
                  \  \/   | |  | |   /    \    | | | |  |  | /  /          
                 / \  \   | |__| |  /  /\  \   | |_| |  |  |/  /          
                |  |  |   |  __  | /  /__\  \  |    /   |      \           
                |  |  |   | |  | | |   __   |  |    \   |  |\   \          
                \     /   | |  | | |  |  |  |  | |\  \  |  | \   \       
                 \___/    |_|  |_| |__|  |__|  |_| \__\ |__|  \__/        
                                                                              
                      - O R C A' S   B I G   F R I E N D -                    
                                      &                                       
                       - I N T E G R A L  F E E D E R -                       
                                                                              
 v1 FN, 2020, v2 2021, v3 2022-2024                                           
------------------------------------------------------------------------------


----------------------
SHARK INTEGRAL PACKAGE
----------------------

Number of atoms                             ...      4
Number of basis functions                   ...    196
Number of shells                            ...     80
Maximum angular momentum                    ...      3
Integral batch strategy                     ... SHARK/LIBINT Hybrid
RI-J (if used) integral strategy            ... SPLIT-RIJ (Revised 2003 algorithm where possible)
Printlevel                                  ...      1
Contraction scheme used                     ... PARTIAL GENERAL contraction
Prescreening option                         ... SCHWARTZ
   Thresh                                   ... 2.500e-11
   Tcut                                     ... 2.500e-12
   Tpresel                                  ... 2.500e-12 
Coulomb Range Separation                    ... NOT USED
Exchange Range Separation                   ... NOT USED
Multipole approximations                    ... NOT USED
Finite Nucleus Model                        ... NOT USED
CABS basis                                  ... NOT available
Auxiliary Coulomb fitting basis             ... NOT available
Auxiliary J/K fitting basis                 ... NOT available
Auxiliary Correlation fitting basis         ... NOT available
Auxiliary 'external' fitting basis          ... NOT available

Checking pre-screening integrals            ... done (  0.0 sec) Dimension = 80
Save PGC pre-screening integrals            ... done (  0.0 sec) Dimension = 80
Calculate PGC overlap integrals             ... done (  0.0 sec) Dimension = 50
Calculating pre-screening integrals (ORCA)  ... done (  0.1 sec) Dimension = 50
Check shell pair data                       ... done (  0.0 sec)
Shell pair information
Shell pair cut-off parameter TPreSel        ...   2.5e-12
Total number of shell pairs                 ...      3240
Shell pairs after pre-screening             ...      2872
Total number of primitive shell pairs       ...      3576
Primitive shell pairs kept                  ...      3086
          la=0 lb=0:    666 shell pairs
          la=1 lb=0:    884 shell pairs
          la=1 lb=1:    315 shell pairs
          la=2 lb=0:    386 shell pairs
          la=2 lb=1:    256 shell pairs
          la=2 lb=2:     55 shell pairs
          la=3 lb=0:    156 shell pairs
          la=3 lb=1:    104 shell pairs
          la=3 lb=2:     40 shell pairs
          la=3 lb=3:     10 shell pairs

Calculating one electron integrals          ... done (  0.0 sec)
Calculating Nuclear repulsion               ... done (  0.0 sec) ENN=    114.945192750311 Eh

Diagonalization of the overlap matrix:
Smallest eigenvalue                        ... 6.285e-05
Time for diagonalization                   ...    0.001 sec
Threshold for overlap eigenvalues          ... 1.000e-07
Number of eigenvalues below threshold      ... 0
Time for construction of square roots      ...    0.000 sec
Total time needed                          ...    0.002 sec

-------------------
DFT GRID GENERATION
-------------------

General Integration Accuracy     IntAcc      ... 4.388
Radial Grid Type                 RadialGrid  ... OptM3 with GC (2021)
Angular Grid (max. ang.)         AngularGrid ... 4 (Lebedev-302)
Angular grid pruning method      GridPruning ... 4 (adaptive)
Weight generation scheme         WeightScheme... mBecke (2022)
Basis function cutoff            BFCut       ... 1.0000e-11
Integration weight cutoff        WCut        ... 1.0000e-14
Partially contracted basis set               ... off
Rotationally invariant grid construction     ... off
Angular grids for H and He will be reduced by one unit
Diffuse basis detected: some atoms will have their outermost
                        angular grid increased by 1.

Total number of grid points                  ...    22418
Total number of batches                      ...      352
Average number of points per batch           ...       63
Average number of grid points per atom       ...     5604

---------------------
SHARK GRID GENERATION
---------------------

General Integration Accuracy     IntAcc      ... 4.388
Radial Grid Type                 RadialGrid  ... OptM3 with GC (2021)
Angular Grid (max. ang.)         AngularGrid ... 4 (Lebedev-302)
Angular grid pruning method      GridPruning ... 4 (adaptive)
Weight generation scheme         WeightScheme... mBecke (2022)
Basis function cutoff            BFCut       ... 1.0000e-11
Integration weight cutoff        WCut        ... 1.0000e-14
Partially contracted basis set               ... off
Rotationally invariant grid construction     ... off
Angular grids for H and He will be reduced by one unit
Diffuse basis detected: some atoms will have their outermost
                        angular grid increased by 1.
Core-polarized basis detected: some atoms will have their core
                               angular grid increased.
Steep s-basis detected: some atoms will have their radial
                        grid points doubled.

Total number of grid points                  ...    47180
Total number of batches                      ...      740
Average number of points per batch           ...       63
Average number of grid points per atom       ...    11795
Initializing property integral containers    ... done (  0.0 sec)

SHARK setup successfully completed in   0.6 seconds

Maximum memory used throughout the entire STARTUP-calculation: 52.4 MB
-------------------------------------------------------------------------------
                                 ORCA GUESS
                   Start orbitals & Density for SCF / CASSCF
-------------------------------------------------------------------------------

------------
SCF SETTINGS
------------
Hamiltonian:
 Ab initio Hamiltonian  Method          .... Hartree-Fock(GTOs)


General Settings:
 Integral files         IntName         .... HCl2
 Hartree-Fock type      HFTyp           .... RHF
 Total Charge           Charge          ....    0
 Multiplicity           Mult            ....    1
 Number of Electrons    NEL             ....   36
 Basis Dimension        Dim             ....  146
 Nuclear Repulsion      ENuc            ....    114.9451927503 Eh

Convergence Acceleration:
 AO-DIIS                CNVDIIS         .... on
   Start iteration      DIISMaxIt       ....    12
   Startup error        DIISStart       ....  0.200000
   # of expansion vecs  DIISMaxEq       ....     5
   Bias factor          DIISBfac        ....   1.050
   Max. coefficient     DIISMaxC        ....  10.000
 MO-DIIS                CNVKDIIS        .... off
 Trust-Rad. Augm. Hess. CNVTRAH         .... auto
   Auto Start mean grad. ratio tolernc. ....  1.125000
   Auto Start start iteration           ....    50
   Auto Start num. interpolation iter.  ....    10
   Max. Number of Micro iterations      ....    24
   Max. Number of Macro iterations      .... Maxiter - #DIIS iter
   Number of Davidson start vectors     ....     2
   Converg. threshold    (grad. norm)   ....   1.000e-05
   Grad. Scal. Fac. for Micro threshold ....   0.100
   Minimum threshold for Micro iter.    ....   1.000e-02
   NR start threshold (gradient norm)   ....   1.000e-04
   Initial trust radius                 ....   0.400
   Minimum AH scaling param. (alpha)    ....   1.000
   Maximum AH scaling param. (alpha)    .... 1000.000
   Quad. conv. algorithm                .... NR
   White noise on init. David. guess    .... on
   Maximum white noise                  ....   0.010
   Pseudo random numbers                .... off
   Inactive MOs                         .... canonical
   Orbital update algorithm             .... Taylor
   Preconditioner                       .... Diag
   Full preconditioner red. dimension   ....   250
 SOSCF                  CNVSOSCF        .... on
   Start iteration      SOSCFMaxIt      ....   150
   Startup grad/error   SOSCFStart      ....  0.003300
   Hessian update       SOSCFHessUp     .... L-BFGS
 Level Shifting         CNVShift        .... on
   Level shift para.    LevelShift      ....    0.2500
   Turn off err/grad.   ShiftErr        ....    0.0010
 Zerner damping         CNVZerner       .... off
 Static damping         CNVDamp         .... on
   Fraction old density DampFac         ....    0.7000
   Max. Damping (<1)    DampMax         ....    0.9800
   Min. Damping (>=0)   DampMin         ....    0.0000
   Turn off err/grad.   DampErr         ....    0.1000

SCF Procedure:
 Maximum # iterations   MaxIter         ....   125
 SCF integral mode      SCFMode         .... Direct
   Integral package                     .... SHARK and LIBINT hybrid scheme
 Reset frequency        DirectResetFreq ....    20
 Integral Threshold     Thresh          ....  2.500e-11 Eh
 Primitive CutOff       TCut            ....  2.500e-12 Eh

Convergence Tolerance:
 Convergence Check Mode ConvCheckMode   .... Total+1el-Energy
 Convergence forced     ConvForced      .... 1
 Energy Change          TolE            ....  1.000e-08 Eh
 1-El. energy change                    ....  1.000e-05 Eh
 Orbital Gradient       TolG            ....  1.000e-05
 Orbital Rotation angle TolX            ....  1.000e-05
 DIIS Error             TolErr          ....  5.000e-07

------------------------------
INITIAL GUESS: MODEL POTENTIAL
------------------------------
Loading Hartree-Fock densities                     ... done
Calculating cut-offs                               ... done
Initializing the effective Hamiltonian             ... done
Setting up the integral package (SHARK)            ... done
Starting the Coulomb interaction                   ... done (   0.0 sec)
Making the grid                                    ... done (   0.0 sec)
Mapping shells                                     ... done
Starting the XC term evaluation                    ... done (   0.0 sec)
Transforming the Hamiltonian                       ... done (   0.0 sec)
Diagonalizing the Hamiltonian                      ... done (   0.0 sec)
Back transforming the eigenvectors                 ... done (   0.0 sec)
Now organizing SCF variables                       ... done
                      ------------------
                      INITIAL GUESS DONE (   0.1 sec)
                      ------------------
             **** ENERGY FILE WAS UPDATED (HCl2.en.tmp) ****
Finished Guess after   0.1 sec
Maximum memory used throughout the entire GUESS-calculation: 11.4 MB

-------------------------------------------------------------------------------------------
                                      ORCA LEAN-SCF
                              memory conserving SCF solver
-------------------------------------------------------------------------------------------

----------------------------------------D-I-I-S--------------------------------------------
Iteration    Energy (Eh)           Delta-E    RMSDP     MaxDP     DIISErr   Damp  Time(sec)
-------------------------------------------------------------------------------------------
               ***  Starting incremental Fock matrix formation  ***
    1    -919.6551082434888258     0.00e+00  2.70e-03  6.74e-02  1.28e-01  0.700   1.8
    2    -919.6695306129541905    -1.44e-02  2.21e-03  5.32e-02  9.30e-02  0.700   1.6
                               ***Turning on AO-DIIS***
    3    -919.6796293041724084    -1.01e-02  1.77e-03  3.94e-02  6.69e-02  0.700   1.7
    4    -919.6867206633081651    -7.09e-03  4.37e-03  9.43e-02  4.70e-02  0.000   1.6
    5    -919.7041009427715608    -1.74e-02  2.24e-04  3.87e-03  3.39e-03  0.000   1.7
                              *** Initializing SOSCF ***
---------------------------------------S-O-S-C-F--------------------------------------
Iteration    Energy (Eh)           Delta-E    RMSDP     MaxDP     MaxGrad    Time(sec)
--------------------------------------------------------------------------------------
    6    -919.7041955691055364    -9.46e-05  1.19e-04  2.42e-03  1.03e-03     1.6
               *** Restarting incremental Fock matrix formation ***
    7    -919.7042154729687127    -1.99e-05  4.43e-05  6.20e-04  7.17e-04     1.7
    8    -919.7042206599579686    -5.19e-06  4.98e-05  9.32e-04  2.00e-04     1.5
    9    -919.7042219468349913    -1.29e-06  1.09e-05  2.16e-04  6.63e-05     1.5
   10    -919.7042220479642083    -1.01e-07  3.57e-06  8.79e-05  2.15e-05     1.4
   11    -919.7042220540228072    -6.06e-09  2.32e-06  5.75e-05  5.16e-06     1.3
                 **** Energy Check signals convergence ****

               *****************************************************
               *                     SUCCESS                       *
               *           SCF CONVERGED AFTER  11 CYCLES          *
               *****************************************************

             **** ENERGY FILE WAS UPDATED (HCl2.en.tmp) ****

----------------
TOTAL SCF ENERGY
----------------

Total Energy       :       -919.70422205402281 Eh          -25026.42420 eV

Components:
Nuclear Repulsion  :        114.94519275031067 Eh            3127.81771 eV
Electronic Energy  :      -1034.64941480433345 Eh          -28154.24191 eV
One Electron Energy:      -1499.37926382134174 Eh          -40800.18401 eV
Two Electron Energy:        464.72984901700829 Eh           12645.94210 eV

Virial components:
Potential Energy   :      -1841.89978356809252 Eh          -50120.64120 eV
Kinetic Energy     :        922.19556151406960 Eh           25094.21699 eV
Virial Ratio       :          1.99729846947435

---------------
SCF CONVERGENCE
---------------

  Last Energy change         ...    6.0586e-09  Tolerance :   1.0000e-08
  Last MAX-Density change    ...    5.7491e-05  Tolerance :   1.0000e-07
  Last RMS-Density change    ...    2.3186e-06  Tolerance :   5.0000e-09
  Last DIIS Error            ...    1.0276e-03  Tolerance :   5.0000e-07
  Last Orbital Gradient      ...    5.1550e-06  Tolerance :   1.0000e-05
  Last Orbital Rotation      ...    2.4115e-05  Tolerance :   1.0000e-05


----------------
ORBITAL ENERGIES
----------------

  NO   OCC          E(Eh)            E(eV) 
   0   2.0000    -104.858491     -2853.3446 
   1   2.0000    -104.858489     -2853.3445 
   2   2.0000     -10.598362      -288.3961 
   3   2.0000     -10.597639      -288.3764 
   4   2.0000      -8.068427      -219.5531 
   5   2.0000      -8.066108      -219.4899 
   6   2.0000      -8.058418      -219.2807 
   7   2.0000      -8.058316      -219.2779 
   8   2.0000      -8.057789      -219.2636 
   9   2.0000      -8.057707      -219.2614 
  10   2.0000      -1.387300       -37.7504 
  11   2.0000      -1.052875       -28.6502 
  12   2.0000      -0.811628       -22.0855 
  13   2.0000      -0.648122       -17.6363 
  14   2.0000      -0.644768       -17.5450 
  15   2.0000      -0.478039       -13.0081 
  16   2.0000      -0.402928       -10.9642 
  17   2.0000      -0.254375        -6.9219 
  18   0.0000       0.028813         0.7840 
  19   0.0000       0.044340         1.2066 
  20   0.0000       0.072856         1.9825 
  21   0.0000       0.102105         2.7784 
  22   0.0000       0.102893         2.7998 
  23   0.0000       0.116676         3.1749 
  24   0.0000       0.135819         3.6958 
  25   0.0000       0.152106         4.1390 
  26   0.0000       0.155620         4.2346 
  27   0.0000       0.163762         4.4562 
  28   0.0000       0.234166         6.3720 
*Only the first 10 virtual orbitals were printed.

                    ********************************
                    * MULLIKEN POPULATION ANALYSIS *
                    ********************************

-----------------------
MULLIKEN ATOMIC CHARGES
-----------------------
   0 Cl:   -0.066795
   1 H :    0.066795
   2 Cl:   -0.066795
   3 H :    0.066795
Sum of atomic charges:   -0.0000000

--------------------------------
MULLIKEN REDUCED ORBITAL CHARGES
--------------------------------
  0 Cls       :     5.744835  s :     5.744835
      pz      :     3.923722  p :    11.096052
      px      :     3.304649
      py      :     3.867680
      dz2     :     0.044091  d :     0.204659
      dxz     :     0.035394
      dyz     :     0.000051
      dx2y2   :     0.085105
      dxy     :     0.040019
      f0      :     0.002117  f :     0.021250
      f+1     :     0.003905
      f-1     :     0.000870
      f+2     :     0.003110
      f-2     :     0.000052
      f+3     :     0.003142
      f-3     :     0.008053

  1 H s       :     0.805552  s :     0.805552
      pz      :     0.027523  p :     0.106564
      px      :     0.043483
      py      :     0.035558
      dz2     :     0.001242  d :     0.021089
      dxz     :     0.005525
      dyz     :     0.002506
      dx2y2   :     0.007650
      dxy     :     0.004166

  2 Cls       :     5.744835  s :     5.744835
      pz      :     3.923722  p :    11.096052
      px      :     3.304649
      py      :     3.867680
      dz2     :     0.044091  d :     0.204659
      dxz     :     0.035394
      dyz     :     0.000051
      dx2y2   :     0.085105
      dxy     :     0.040019
      f0      :     0.002117  f :     0.021250
      f+1     :     0.003905
      f-1     :     0.000870
      f+2     :     0.003110
      f-2     :     0.000052
      f+3     :     0.003142
      f-3     :     0.008053

  3 H s       :     0.805552  s :     0.805552
      pz      :     0.027523  p :     0.106564
      px      :     0.043483
      py      :     0.035558
      dz2     :     0.001242  d :     0.021089
      dxz     :     0.005525
      dyz     :     0.002506
      dx2y2   :     0.007650
      dxy     :     0.004166



                     *******************************
                     * LOEWDIN POPULATION ANALYSIS *
                     *******************************

----------------------
LOEWDIN ATOMIC CHARGES
----------------------
   0 Cl:    0.785789
   1 H :   -0.785789
   2 Cl:    0.785789
   3 H :   -0.785789

-------------------------------
LOEWDIN REDUCED ORBITAL CHARGES
-------------------------------
  0 Cls       :     5.087962  s :     5.087962
      pz      :     3.388385  p :     9.881550
      px      :     3.132290
      py      :     3.360875
      dz2     :     0.153472  d :     0.962748
      dxz     :     0.220153
      dyz     :     0.001034
      dx2y2   :     0.351499
      dxy     :     0.236591
      f0      :     0.038265  f :     0.281951
      f+1     :     0.025546
      f-1     :     0.007387
      f+2     :     0.063460
      f-2     :     0.000342
      f+3     :     0.048371
      f-3     :     0.098578

  1 H s       :     0.805485  s :     0.805485
      pz      :     0.152997  p :     0.607599
      px      :     0.282147
      py      :     0.172455
      dz2     :     0.025949  d :     0.372705
      dxz     :     0.099725
      dyz     :     0.035639
      dx2y2   :     0.117658
      dxy     :     0.093734

  2 Cls       :     5.087962  s :     5.087962
      pz      :     3.388385  p :     9.881550
      px      :     3.132290
      py      :     3.360875
      dz2     :     0.153472  d :     0.962748
      dxz     :     0.220153
      dyz     :     0.001034
      dx2y2   :     0.351499
      dxy     :     0.236591
      f0      :     0.038265  f :     0.281951
      f+1     :     0.025546
      f-1     :     0.007387
      f+2     :     0.063460
      f-2     :     0.000342
      f+3     :     0.048371
      f-3     :     0.098578

  3 H s       :     0.805485  s :     0.805485
      pz      :     0.152997  p :     0.607599
      px      :     0.282147
      py      :     0.172455
      dz2     :     0.025949  d :     0.372705
      dxz     :     0.099725
      dyz     :     0.035639
      dx2y2   :     0.117658
      dxy     :     0.093734



                      *****************************
                      * MAYER POPULATION ANALYSIS *
                      *****************************

  NA   - Mulliken gross atomic population
  ZA   - Total nuclear charge
  QA   - Mulliken gross atomic charge
  VA   - Mayer's total valence
  BVA  - Mayer's bonded valence
  FA   - Mayer's free valence

  ATOM       NA         ZA         QA         VA         BVA        FA
  0 Cl    17.0668    17.0000    -0.0668     1.0237     1.0237    -0.0000
  1 H      0.9332     1.0000     0.0668     1.1886     1.1886    -0.0000
  2 Cl    17.0668    17.0000    -0.0668     1.0237     1.0237    -0.0000
  3 H      0.9332     1.0000     0.0668     1.1886     1.1886    -0.0000

  Mayer bond orders larger than 0.100000
B(  0-Cl,  1-H ) :   0.9234 B(  0-Cl,  3-H ) :   0.1898 B(  1-H ,  2-Cl) :   0.1898 
B(  2-Cl,  3-H ) :   0.9234 

-------
TIMINGS
-------

Total SCF time: 0 days 0 hours 0 min 17 sec 

Total time                  ....      17.469 sec
Sum of individual times     ....      17.463 sec  (100.0%)

SCF preparation             ....       0.023 sec  (  0.1%)
Fock matrix formation       ....      17.402 sec  ( 99.6%)
  Startup                   ....       0.001 sec  (  0.0% of F)
  Coulomb+Exchange Fock     ....      17.398 sec  (100.0% of F)
Diagonalization             ....       0.000 sec  (  0.0%)
Density matrix formation    ....       0.004 sec  (  0.0%)
Total Energy calculation    ....       0.001 sec  (  0.0%)
Population analysis         ....       0.002 sec  (  0.0%)
Orbital Transformation      ....       0.004 sec  (  0.0%)
Orbital Orthonormalization  ....       0.000 sec  (  0.0%)
DIIS solution               ....       0.018 sec  (  0.1%)
SOSCF solution              ....       0.008 sec  (  0.0%)
Finished LeanSCF after  17.5 sec

Maximum memory used throughout the entire LEANSCF-calculation: 15.8 MB

------------------------------------------------------------------------------
                                ORCA  MP2 
------------------------------------------------------------------------------

NOTE: Switching SHARK to Segmented Contraction for MP2
      If that is not desired please turn off the PGCFlag in the input (%shark PGCFlag 0 end)
      Number of basis functions in BAS before restore: 196
      Number of basis functions in BAS after restore : 146
Freezing NCore=20 chemical core electrons
MP2 will be done in the AO integral direct mode
The Q1-step will be done using symmetric double matrices
Dimension of the basis                    ...  146
Memory devoted for MP2                    ... 4096 MB   
Memory needed for all in one shot         ...   97 MB
Number of MOs that can be treated together...  341      
MP2 density construction                  ... relaxed
The MP2 gradient is requested => amplitudes will be stored on disk
Total number of MOs              ...    8
Number of MOs treated per batch  ...    8 
Number of batches necessary      ...    1 
OPERATORS   0/  0 PASS   0
-----------------------------------------------
 MP2 CORRELATION ENERGY   :     -0.481013426 Eh
-----------------------------------------------


---------------------
MP2 DENSITY FORMATION
---------------------

Completing the external part of the density      ... done
Storing the unrelaxed density                    ... done

Calculating G(D)                                 ... done
Completing the Lagrangian                        ... done
Solving the Z-vector equations                   ... 
-------------------
SHARK CP-SCF DRIVER
-------------------

Dimension of the orbital basis          ...    146
Dimension of the CPSCF-problem          ...   2304
Number of operators                     ...      1
Max. number of iterations               ...    128
Convergence Tolerance                   ... 1.0e-04
Number of perturbations                 ...      1
Perturbation type                       ... REAL

----------------------------
POPLE LINEAR EQUATION SOLVER
----------------------------

  ITERATION   0:   ||err||_max =   5.6895e-02 (   2.8 sec)
  ITERATION   1:   ||err||_max =   1.4093e-02 (   3.0 sec)
  ITERATION   2:   ||err||_max =   3.7696e-03 (   3.0 sec)
  ITERATION   3:   ||err||_max =   9.4211e-04 (   3.0 sec)
  ITERATION   4:   ||err||_max =   2.4271e-04 (   3.0 sec)
  ITERATION   5:   ||err||_max =   5.7596e-05 (   3.0 sec)
                                                 ... done
Finalizing the relaxed density                   ... done
Transforming P to the AO basis                   ... done
Storing the relaxed density                      ... done

------------------------------------
ENERGY WEIGHTED DENSITY FINALIZATION
------------------------------------

Gathering the parts of the W-matrix              ...                                                      done
Forming the Z-density                            ... done
Transforming Z to the AO basis                   ... done
Calculating G(Z)                                 ... done
Finalizing the W-matrix                          ...                                                      done
Transforming W to the AO basis and storing       ... done

                *********************************************
                * UNRELAXED MP2 DENSITY POPULATION ANALYSIS *
                *********************************************

------------------------------------------------------------------------------
                           ORCA POPULATION ANALYSIS
------------------------------------------------------------------------------
Input electron density              ... HCl2.pmp2ur
BaseName (.gbw .S,...)              ... HCl2

                    ********************************
                    * MULLIKEN POPULATION ANALYSIS *
                    ********************************

-----------------------
MULLIKEN ATOMIC CHARGES
-----------------------
   0 Cl:   -0.058809
   1 H :    0.058809
   2 Cl:   -0.058809
   3 H :    0.058809
Sum of atomic charges:   -0.0000000

--------------------------------
MULLIKEN REDUCED ORBITAL CHARGES
--------------------------------
  0 Cls       :     5.737673  s :     5.737673
      pz      :     3.885682  p :    10.999519
      px      :     3.282890
      py      :     3.830947
      dz2     :     0.060462  d :     0.289076
      dxz     :     0.054174
      dyz     :     0.018958
      dx2y2   :     0.099434
      dxy     :     0.056048
      f0      :     0.003690  f :     0.032542
      f+1     :     0.005537
      f-1     :     0.002318
      f+2     :     0.004687
      f-2     :     0.001747
      f+3     :     0.005075
      f-3     :     0.009487
  1 H s       :     0.808767  s :     0.808767
      pz      :     0.030661  p :     0.110857
      px      :     0.043903
      py      :     0.036294
      dz2     :     0.001401  d :     0.021567
      dxz     :     0.005652
      dyz     :     0.002727
      dx2y2   :     0.007658
      dxy     :     0.004129
  2 Cls       :     5.737673  s :     5.737673
      pz      :     3.885682  p :    10.999519
      px      :     3.282890
      py      :     3.830947
      dz2     :     0.060462  d :     0.289076
      dxz     :     0.054174
      dyz     :     0.018958
      dx2y2   :     0.099434
      dxy     :     0.056048
      f0      :     0.003690  f :     0.032542
      f+1     :     0.005537
      f-1     :     0.002318
      f+2     :     0.004687
      f-2     :     0.001747
      f+3     :     0.005075
      f-3     :     0.009487
  3 H s       :     0.808767  s :     0.808767
      pz      :     0.030661  p :     0.110857
      px      :     0.043903
      py      :     0.036294
      dz2     :     0.001401  d :     0.021567
      dxz     :     0.005652
      dyz     :     0.002727
      dx2y2   :     0.007658
      dxy     :     0.004129


                     *******************************
                     * LOEWDIN POPULATION ANALYSIS *
                     *******************************

----------------------
LOEWDIN ATOMIC CHARGES
----------------------
   0 Cl:    0.781488
   1 H :   -0.781488
   2 Cl:    0.781488
   3 H :   -0.781488

-------------------------------
LOEWDIN REDUCED ORBITAL CHARGES
-------------------------------
  0 Cls       :     5.078680  s :     5.078680
      pz      :     3.362673  p :     9.818107
      px      :     3.119680
      py      :     3.335754
      dz2     :     0.167194  d :     1.027085
      dxz     :     0.232189
      dyz     :     0.018925
      dx2y2   :     0.358822
      dxy     :     0.249955
      f0      :     0.039495  f :     0.294640
      f+1     :     0.028653
      f-1     :     0.008877
      f+2     :     0.064350
      f-2     :     0.002529
      f+3     :     0.050930
      f-3     :     0.099805
  1 H s       :     0.799035  s :     0.799035
      pz      :     0.153916  p :     0.612441
      px      :     0.284824
      py      :     0.173701
      dz2     :     0.026582  d :     0.370012
      dxz     :     0.098332
      dyz     :     0.035569
      dx2y2   :     0.115883
      dxy     :     0.093646
  2 Cls       :     5.078681  s :     5.078681
      pz      :     3.362673  p :     9.818107
      px      :     3.119680
      py      :     3.335754
      dz2     :     0.167194  d :     1.027085
      dxz     :     0.232189
      dyz     :     0.018925
      dx2y2   :     0.358822
      dxy     :     0.249955
      f0      :     0.039495  f :     0.294640
      f+1     :     0.028653
      f-1     :     0.008877
      f+2     :     0.064350
      f-2     :     0.002529
      f+3     :     0.050930
      f-3     :     0.099805
  3 H s       :     0.799035  s :     0.799035
      pz      :     0.153916  p :     0.612441
      px      :     0.284824
      py      :     0.173701
      dz2     :     0.026582  d :     0.370012
      dxz     :     0.098332
      dyz     :     0.035569
      dx2y2   :     0.115883
      dxy     :     0.093646


                      *****************************
                      * MAYER POPULATION ANALYSIS *
                      *****************************

  NA   - Mulliken gross atomic population
  ZA   - Total nuclear charge
  QA   - Mulliken gross atomic charge
  VA   - Mayer's total valence
  BVA  - Mayer's bonded valence
  FA   - Mayer's free valence

  ATOM       NA         ZA         QA         VA         BVA        FA
  0 Cl    17.0588    17.0000    -0.0588     1.5065     0.9097     0.5968
  1 H      0.9412     1.0000     0.0588     1.1939     1.0802     0.1137
  2 Cl    17.0588    17.0000    -0.0588     1.5065     0.9097     0.5968
  3 H      0.9412     1.0000     0.0588     1.1939     1.0802     0.1137

  Mayer bond orders larger than 0.100000
B(  0-Cl,  1-H ) :   0.8539 B(  0-Cl,  2-Cl) :  -0.1081 B(  0-Cl,  3-H ) :   0.1639 
B(  1-H ,  2-Cl) :   0.1639 B(  2-Cl,  3-H ) :   0.8539 


                *******************************************
                * RELAXED MP2 DENSITY POPULATION ANALYSIS *
                *******************************************

------------------------------------------------------------------------------
                           ORCA POPULATION ANALYSIS
------------------------------------------------------------------------------
Input electron density              ... HCl2.pmp2re
BaseName (.gbw .S,...)              ... HCl2

                    ********************************
                    * MULLIKEN POPULATION ANALYSIS *
                    ********************************

-----------------------
MULLIKEN ATOMIC CHARGES
-----------------------
   0 Cl:   -0.057460
   1 H :    0.057460
   2 Cl:   -0.057460
   3 H :    0.057460
Sum of atomic charges:   -0.0000000

--------------------------------
MULLIKEN REDUCED ORBITAL CHARGES
--------------------------------
  0 Cls       :     5.735965  s :     5.735965
      pz      :     3.859079  p :    10.977545
      px      :     3.311812
      py      :     3.806655
      dz2     :     0.054846  d :     0.312523
      dxz     :     0.075391
      dyz     :     0.019010
      dx2y2   :     0.093666
      dxy     :     0.069610
      f0      :     0.003655  f :     0.031426
      f+1     :     0.005260
      f-1     :     0.002288
      f+2     :     0.004595
      f-2     :     0.001767
      f+3     :     0.004597
      f-3     :     0.009263
  1 H s       :     0.801665  s :     0.801665
      pz      :     0.036526  p :     0.120854
      px      :     0.045759
      py      :     0.038570
      dz2     :     0.001193  d :     0.020021
      dxz     :     0.005379
      dyz     :     0.002576
      dx2y2   :     0.007132
      dxy     :     0.003741
  2 Cls       :     5.735965  s :     5.735965
      pz      :     3.859079  p :    10.977545
      px      :     3.311812
      py      :     3.806655
      dz2     :     0.054846  d :     0.312523
      dxz     :     0.075391
      dyz     :     0.019010
      dx2y2   :     0.093666
      dxy     :     0.069610
      f0      :     0.003655  f :     0.031426
      f+1     :     0.005260
      f-1     :     0.002288
      f+2     :     0.004595
      f-2     :     0.001767
      f+3     :     0.004597
      f-3     :     0.009263
  3 H s       :     0.801665  s :     0.801665
      pz      :     0.036526  p :     0.120854
      px      :     0.045759
      py      :     0.038570
      dz2     :     0.001193  d :     0.020021
      dxz     :     0.005379
      dyz     :     0.002576
      dx2y2   :     0.007132
      dxy     :     0.003741


                     *******************************
                     * LOEWDIN POPULATION ANALYSIS *
                     *******************************

----------------------
LOEWDIN ATOMIC CHARGES
----------------------
   0 Cl:    0.787112
   1 H :   -0.787112
   2 Cl:    0.787112
   3 H :   -0.787112

-------------------------------
LOEWDIN REDUCED ORBITAL CHARGES
-------------------------------
  0 Cls       :     5.085042  s :     5.085042
      pz      :     3.351985  p :     9.809834
      px      :     3.132185
      py      :     3.325664
      dz2     :     0.161767  d :     1.034676
      dxz     :     0.244484
      dyz     :     0.018694
      dx2y2   :     0.351177
      dxy     :     0.258554
      f0      :     0.037243  f :     0.283336
      f+1     :     0.028053
      f-1     :     0.008562
      f+2     :     0.060953
      f-2     :     0.002448
      f+3     :     0.050161
      f-3     :     0.095916
  1 H s       :     0.788153  s :     0.788153
      pz      :     0.161005  p :     0.633710
      px      :     0.294824
      py      :     0.177882
      dz2     :     0.026793  d :     0.365249
      dxz     :     0.096084
      dyz     :     0.035082
      dx2y2   :     0.113249
      dxy     :     0.094042
  2 Cls       :     5.085042  s :     5.085042
      pz      :     3.351985  p :     9.809835
      px      :     3.132185
      py      :     3.325664
      dz2     :     0.161767  d :     1.034676
      dxz     :     0.244484
      dyz     :     0.018694
      dx2y2   :     0.351177
      dxy     :     0.258554
      f0      :     0.037243  f :     0.283336
      f+1     :     0.028053
      f-1     :     0.008562
      f+2     :     0.060953
      f-2     :     0.002448
      f+3     :     0.050161
      f-3     :     0.095916
  3 H s       :     0.788153  s :     0.788153
      pz      :     0.161005  p :     0.633710
      px      :     0.294824
      py      :     0.177882
      dz2     :     0.026793  d :     0.365249
      dxz     :     0.096084
      dyz     :     0.035082
      dx2y2   :     0.113249
      dxy     :     0.094042


                      *****************************
                      * MAYER POPULATION ANALYSIS *
                      *****************************

  NA   - Mulliken gross atomic population
  ZA   - Total nuclear charge
  QA   - Mulliken gross atomic charge
  VA   - Mayer's total valence
  BVA  - Mayer's bonded valence
  FA   - Mayer's free valence

  ATOM       NA         ZA         QA         VA         BVA        FA
  0 Cl    17.0575    17.0000    -0.0575     1.7102     1.1273     0.5828
  1 H      0.9425     1.0000     0.0575     1.2062     1.0932     0.1131
  2 Cl    17.0575    17.0000    -0.0575     1.7102     1.1273     0.5828
  3 H      0.9425     1.0000     0.0575     1.2062     1.0932     0.1131

  Mayer bond orders larger than 0.100000
B(  0-Cl,  1-H ) :   0.8118 B(  0-Cl,  2-Cl) :   0.1278 B(  0-Cl,  3-H ) :   0.1877 
B(  1-H ,  2-Cl) :   0.1877 B(  2-Cl,  3-H ) :   0.8118 


----------------------------------
MP2 DERIVATIVE INTEGRAL GENERATION
----------------------------------

Input SCF Electron Density              ... HCl2.scfp
Input Correlated Electron Density       ... HCl2.pmp2re
Input Energy Weighted Density           ... HCl2.wmp2.tmp
Input Wavefunction Amplitudes           ... HCl2.mp2tsaa.tmp

Nuclear repulsion gradient              ... done (  0.0 sec)
HCore & Overlap gradient  (SHARK)       ... done (  0.0 sec)
Analytic two-electron gradient terms    ... 
  Batch handling in the gradient evaluation:
  General contraction                   ... not used
  Memory available                      ... 4071.0 MB
  Memory per occupied orbital in Q2     ...    1.3 MB
  Memory per occupied orbital in Q3     ...    0.1 MB
  Total memory requirement per |i>      ...    1.4 MB
  Number of orbitals treated per batch  ...      8
  Number of batches to be done          ...      1
done ( 17.6 sec)

---------------------------------------
MP2 TOTAL ENERGY:     -920.185235480 Eh
---------------------------------------

The final MP2 gradient
  0:   0.59403994   0.00032804  -0.00000000
  1:   0.07600612  -0.00032806   0.00000000
  2:  -0.59403994   0.00032810   0.00000000
  3:  -0.07600611  -0.00032808  -0.00000000

-----------------------------------
NORM OF THE MP2 GRADIENT:  0.846948
-----------------------------------

Maximum memory used throughout the entire MP2-calculation: 162.3 MB

-------------------------   --------------------
FINAL SINGLE POINT ENERGY      -920.185235480440
-------------------------   --------------------

------------------------------------------------------------------------------
                         ORCA GEOMETRY RELAXATION STEP
------------------------------------------------------------------------------

Reading the OPT-File                    .... done
Getting information on internals        .... done
Copying old internal coords+grads       .... done
Making the new internal coordinates     .... (2022 redundants) done
Validating the new internal coordinates .... (2022 redundants) done
Calculating the B-matrix                .... done
Calculating the G,G- and P matrices     .... done
Transforming gradient to internals      .... done
Projecting the internal gradient        .... done
Number of atoms                         ....   4
Number of internal coordinates          ....   7
Current Energy                          ....  -920.185235480 Eh
Current gradient norm                   ....     0.846948163 Eh/bohr
Maximum allowed component of the step   ....  0.300
Current trust radius                    ....  0.300
Evaluating the initial hessian          ....  (Almloef) done
Projecting the Hessian                  .... done
Forming the augmented Hessian           .... done
Diagonalizing the augmented Hessian     .... done
Last element of RFO vector              ....  1.000000000
Lowest eigenvalues of augmented Hessian:
 -0.000000000  0.015395980 1000.000000000 1000.000000000 1000.000000000
Length of the computed step             ....  0.000000000
The final length of the internal step   ....  0.000000000
Converting the step to Cartesian space:
 Initial RMS(Int)=    0.0000000000
Transforming coordinates:
 Iter   0:  RMS(Cart)=    0.0000000000 RMS(Int)=    0.0000000000
Imposing constraints:
 Iter   0:  RMS(Cart)=    0.0000000209 RMS(Int)=    0.0000000532
CONVERGED
done
Storing new coordinates                 .... done

                                .--------------------.
          ----------------------|Geometry convergence|-------------------------
          Item                value                   Tolerance       Converged
          ---------------------------------------------------------------------
          RMS gradient        0.0000000000            0.0001000000      YES
          MAX gradient        0.0000000000            0.0003000000      YES
          RMS step            0.0000000000            0.0020000000      YES
          MAX step            0.0000000001            0.0040000000      YES
          ........................................................
          Max(Bonds)      0.0000      Max(Angles)    0.00
          Max(Dihed)        0.00      Max(Improp)    0.00
          ---------------------------------------------------------------------

                    ***********************HURRAY********************
                    ***        THE OPTIMIZATION HAS CONVERGED     ***
                    *************************************************


    ---------------------------------------------------------------------------
                         Redundant Internal Coordinates

                          --- Optimized Parameters ---  
                            (Angstroem and degrees)

        Definition                    OldVal   dE/dq     Step     FinalVal
    ----------------------------------------------------------------------------
     1. B(H   1,Cl  0)                1.2750  0.157007  0.0000    1.2750 C 
     2. B(Cl  2,Cl  0)                1.6223 -0.443515 -0.0000    1.6223   
     3. B(Cl  2,H   1)                2.8000 -0.232641 -0.0000    2.8000 C 
     4. B(H   3,Cl  2)                1.2750 -0.065659 -0.0000    1.2750 C 
     5. A(H   1,Cl  0,Cl  2)          150.00  0.070131   -0.00    150.00 C 
     6. A(Cl  0,Cl  2,H   3)          150.00 -0.092249    0.00    150.00 C 
     7. D(H   3,Cl  2,Cl  0,H   1)     -0.00  0.000000   -0.00     -0.00   
    ----------------------------------------------------------------------------

Geometry step timings:
Preparation and reading OPT file:      0.000 s (10.162 %)
Internal coordinates            :      0.000 s ( 5.774 %)
B/P matrices and projection     :      0.000 s (20.323 %)
Hessian update/contruction      :      0.000 s (13.164 %)
Making the step                 :      0.000 s (11.316 %)
Converting the step to Cartesian:      0.000 s ( 6.928 %)
Storing new data                :      0.000 s ( 3.233 %)
Checking convergence            :      0.000 s ( 0.231 %)
Final printing                  :      0.000 s (27.483 %)
Total time                      :      0.000 s
                 *******************************************************
                 *** FINAL ENERGY EVALUATION AT THE STATIONARY POINT ***
                 ***               (AFTER    1 CYCLES)               ***
                 *******************************************************
---------------------------------
CARTESIAN COORDINATES (ANGSTROEM)
---------------------------------
  Cl     1.693042    0.637500    0.000000
  H      0.588860   -0.000000   -0.000000
  Cl     3.315322    0.637500   -0.000000
  H      4.419504   -0.000000    0.000000

----------------------------
CARTESIAN COORDINATES (A.U.)
----------------------------
  NO LB      ZA    FRAG     MASS         X           Y           Z
   0 Cl   17.0000    0    35.453    3.199386    1.204700    0.000000
   1 H     1.0000    0     1.008    1.112784   -0.000000   -0.000000
   2 Cl   17.0000    0    35.453    6.265050    1.204700   -0.000000
   3 H     1.0000    0     1.008    8.351652   -0.000000    0.000000

--------------------------------
INTERNAL COORDINATES (ANGSTROEM)
--------------------------------
 Cl     0   0   0     0.000000000000     0.00000000     0.00000000
 H      1   0   0     1.274999622037     0.00000000     0.00000000
 Cl     1   2   0     1.622279861078   149.99998845     0.00000000
 H      3   1   2     1.274999660930   149.99999152     0.00000000

---------------------------
INTERNAL COORDINATES (A.U.)
---------------------------
 Cl     0   0   0     0.000000000000     0.00000000     0.00000000
 H      1   0   0     2.409400106504     0.00000000     0.00000000
 Cl     1   2   0     3.065664650013   149.99998845     0.00000000
 H      3   1   2     2.409400180000   149.99999152     0.00000000

---------------------
BASIS SET INFORMATION
---------------------
There are 2 groups of distinct atoms

 Group   1 Type Cl  : 42s17p3d2f contracted to 6s5p3d2f pattern {131313111/77111/111/11}
 Group   2 Type H   : 6s3p2d contracted to 4s3p2d pattern {3111/111/11}

Atom   0Cl   basis set group =>   1
Atom   1H    basis set group =>   2
Atom   2Cl   basis set group =>   1
Atom   3H    basis set group =>   2
------------------------------------------------------------------------------
                             ORCA STARTUP CALCULATIONS
------------------------------------------------------------------------------
------------------------------------------------------------------------------
                   ___                                                        
                  /   \      - P O W E R E D   B Y -                         
                 /     \                                                     
                 |  |  |   _    _      __       _____    __    __             
                 |  |  |  | |  | |    /  \     |  _  \  |  |  /  |          
                  \  \/   | |  | |   /    \    | | | |  |  | /  /          
                 / \  \   | |__| |  /  /\  \   | |_| |  |  |/  /          
                |  |  |   |  __  | /  /__\  \  |    /   |      \           
                |  |  |   | |  | | |   __   |  |    \   |  |\   \          
                \     /   | |  | | |  |  |  |  | |\  \  |  | \   \       
                 \___/    |_|  |_| |__|  |__|  |_| \__\ |__|  \__/        
                                                                              
                      - O R C A' S   B I G   F R I E N D -                    
                                      &                                       
                       - I N T E G R A L  F E E D E R -                       
                                                                              
 v1 FN, 2020, v2 2021, v3 2022-2024                                           
------------------------------------------------------------------------------


----------------------
SHARK INTEGRAL PACKAGE
----------------------

Number of atoms                             ...      4
Number of basis functions                   ...    196
Number of shells                            ...     80
Maximum angular momentum                    ...      3
Integral batch strategy                     ... SHARK/LIBINT Hybrid
RI-J (if used) integral strategy            ... SPLIT-RIJ (Revised 2003 algorithm where possible)
Printlevel                                  ...      1
Contraction scheme used                     ... PARTIAL GENERAL contraction
Prescreening option                         ... SCHWARTZ
   Thresh                                   ... 2.500e-11
   Tcut                                     ... 2.500e-12
   Tpresel                                  ... 2.500e-12 
Coulomb Range Separation                    ... NOT USED
Exchange Range Separation                   ... NOT USED
Multipole approximations                    ... NOT USED
Finite Nucleus Model                        ... NOT USED
CABS basis                                  ... NOT available
Auxiliary Coulomb fitting basis             ... NOT available
Auxiliary J/K fitting basis                 ... NOT available
Auxiliary Correlation fitting basis         ... NOT available
Auxiliary 'external' fitting basis          ... NOT available

Checking pre-screening integrals            ... done (  0.0 sec) Dimension = 80
Save PGC pre-screening integrals            ... done (  0.0 sec) Dimension = 80
Calculate PGC overlap integrals             ... done (  0.0 sec) Dimension = 50
Calculating pre-screening integrals (ORCA)  ... done (  0.1 sec) Dimension = 50
Check shell pair data                       ... done (  0.0 sec)
Shell pair information
Shell pair cut-off parameter TPreSel        ...   2.5e-12
Total number of shell pairs                 ...      3240
Shell pairs after pre-screening             ...      2872
Total number of primitive shell pairs       ...      3576
Primitive shell pairs kept                  ...      3086
          la=0 lb=0:    666 shell pairs
          la=1 lb=0:    884 shell pairs
          la=1 lb=1:    315 shell pairs
          la=2 lb=0:    386 shell pairs
          la=2 lb=1:    256 shell pairs
          la=2 lb=2:     55 shell pairs
          la=3 lb=0:    156 shell pairs
          la=3 lb=1:    104 shell pairs
          la=3 lb=2:     40 shell pairs
          la=3 lb=3:     10 shell pairs

Calculating one electron integrals          ... done (  0.0 sec)
Calculating Nuclear repulsion               ... done (  0.0 sec) ENN=    114.945195054854 Eh

Diagonalization of the overlap matrix:
Smallest eigenvalue                        ... 6.285e-05
Time for diagonalization                   ...    0.001 sec
Threshold for overlap eigenvalues          ... 1.000e-07
Number of eigenvalues below threshold      ... 0
Time for construction of square roots      ...    0.000 sec
Total time needed                          ...    0.002 sec

-------------------
DFT GRID GENERATION
-------------------

General Integration Accuracy     IntAcc      ... 4.388
Radial Grid Type                 RadialGrid  ... OptM3 with GC (2021)
Angular Grid (max. ang.)         AngularGrid ... 4 (Lebedev-302)
Angular grid pruning method      GridPruning ... 4 (adaptive)
Weight generation scheme         WeightScheme... mBecke (2022)
Basis function cutoff            BFCut       ... 1.0000e-11
Integration weight cutoff        WCut        ... 1.0000e-14
Partially contracted basis set               ... off
Rotationally invariant grid construction     ... off
Angular grids for H and He will be reduced by one unit
Diffuse basis detected: some atoms will have their outermost
                        angular grid increased by 1.

Total number of grid points                  ...    22418
Total number of batches                      ...      352
Average number of points per batch           ...       63
Average number of grid points per atom       ...     5604

---------------------
SHARK GRID GENERATION
---------------------

General Integration Accuracy     IntAcc      ... 4.388
Radial Grid Type                 RadialGrid  ... OptM3 with GC (2021)
Angular Grid (max. ang.)         AngularGrid ... 4 (Lebedev-302)
Angular grid pruning method      GridPruning ... 4 (adaptive)
Weight generation scheme         WeightScheme... mBecke (2022)
Basis function cutoff            BFCut       ... 1.0000e-11
Integration weight cutoff        WCut        ... 1.0000e-14
Partially contracted basis set               ... off
Rotationally invariant grid construction     ... off
Angular grids for H and He will be reduced by one unit
Diffuse basis detected: some atoms will have their outermost
                        angular grid increased by 1.
Core-polarized basis detected: some atoms will have their core
                               angular grid increased.
Steep s-basis detected: some atoms will have their radial
                        grid points doubled.

Total number of grid points                  ...    47180
Total number of batches                      ...      740
Average number of points per batch           ...       63
Average number of grid points per atom       ...    11795
Initializing property integral containers    ... done (  0.0 sec)

SHARK setup successfully completed in   0.6 seconds

Maximum memory used throughout the entire STARTUP-calculation: 52.6 MB
-------------------------------------------------------------------------------
                                 ORCA GUESS
                   Start orbitals & Density for SCF / CASSCF
-------------------------------------------------------------------------------

------------
SCF SETTINGS
------------
Hamiltonian:
 Ab initio Hamiltonian  Method          .... Hartree-Fock(GTOs)


General Settings:
 Integral files         IntName         .... HCl2
 Hartree-Fock type      HFTyp           .... RHF
 Total Charge           Charge          ....    0
 Multiplicity           Mult            ....    1
 Number of Electrons    NEL             ....   36
 Basis Dimension        Dim             ....  146
 Nuclear Repulsion      ENuc            ....    114.9451950549 Eh

Convergence Acceleration:
 AO-DIIS                CNVDIIS         .... on
   Start iteration      DIISMaxIt       ....    12
   Startup error        DIISStart       ....  0.200000
   # of expansion vecs  DIISMaxEq       ....     5
   Bias factor          DIISBfac        ....   1.050
   Max. coefficient     DIISMaxC        ....  10.000
 MO-DIIS                CNVKDIIS        .... off
 Trust-Rad. Augm. Hess. CNVTRAH         .... auto
   Auto Start mean grad. ratio tolernc. ....  1.125000
   Auto Start start iteration           ....     1
   Auto Start num. interpolation iter.  ....    10
   Max. Number of Micro iterations      ....    24
   Max. Number of Macro iterations      .... Maxiter - #DIIS iter
   Number of Davidson start vectors     ....     2
   Converg. threshold    (grad. norm)   ....   1.000e-05
   Grad. Scal. Fac. for Micro threshold ....   0.100
   Minimum threshold for Micro iter.    ....   1.000e-02
   NR start threshold (gradient norm)   ....   1.000e-04
   Initial trust radius                 ....   0.400
   Minimum AH scaling param. (alpha)    ....   1.000
   Maximum AH scaling param. (alpha)    .... 1000.000
   Quad. conv. algorithm                .... NR
   White noise on init. David. guess    .... on
   Maximum white noise                  ....   0.010
   Pseudo random numbers                .... off
   Inactive MOs                         .... canonical
   Orbital update algorithm             .... Taylor
   Preconditioner                       .... Diag
   Full preconditioner red. dimension   ....   250
 SOSCF                  CNVSOSCF        .... on
   Start iteration      SOSCFMaxIt      ....   150
   Startup grad/error   SOSCFStart      ....  0.003300
   Hessian update       SOSCFHessUp     .... L-BFGS
 Level Shifting         CNVShift        .... on
   Level shift para.    LevelShift      ....    0.2500
   Turn off err/grad.   ShiftErr        ....    0.0010
 Zerner damping         CNVZerner       .... off
 Static damping         CNVDamp         .... on
   Fraction old density DampFac         ....    0.7000
   Max. Damping (<1)    DampMax         ....    0.9800
   Min. Damping (>=0)   DampMin         ....    0.0000
   Turn off err/grad.   DampErr         ....    0.1000

SCF Procedure:
 Maximum # iterations   MaxIter         ....   125
 SCF integral mode      SCFMode         .... Direct
   Integral package                     .... SHARK and LIBINT hybrid scheme
 Reset frequency        DirectResetFreq ....    20
 Integral Threshold     Thresh          ....  2.500e-11 Eh
 Primitive CutOff       TCut            ....  2.500e-12 Eh

Convergence Tolerance:
 Convergence Check Mode ConvCheckMode   .... Total+1el-Energy
 Convergence forced     ConvForced      .... 1
 Energy Change          TolE            ....  1.000e-08 Eh
 1-El. energy change                    ....  1.000e-05 Eh
 Orbital Gradient       TolG            ....  1.000e-05
 Orbital Rotation angle TolX            ....  1.000e-05
 DIIS Error             TolErr          ....  5.000e-07

---------------------
INITIAL GUESS: MOREAD
---------------------
Guess MOs are being read from file: HCl2.gbw
Input Geometry matches current geometry (good)
Input basis set matches current basis set (good)
Occupation numbers will be reassigned to an Aufbau configuration
MOs were renormalized
MOs were reorthogonalized (Cholesky)
                      ------------------
                      INITIAL GUESS DONE (   0.0 sec)
                      ------------------
             **** ENERGY FILE WAS UPDATED (HCl2.en.tmp) ****
Finished Guess after   0.0 sec
Maximum memory used throughout the entire GUESS-calculation: 11.6 MB

-------------------------------------------------------------------------------------------
                                      ORCA LEAN-SCF
                              memory conserving SCF solver
-------------------------------------------------------------------------------------------

----------------------------------------D-I-I-S--------------------------------------------
Iteration    Energy (Eh)           Delta-E    RMSDP     MaxDP     DIISErr   Damp  Time(sec)
-------------------------------------------------------------------------------------------
               ***  Starting incremental Fock matrix formation  ***
                              *** Initializing SOSCF ***
---------------------------------------S-O-S-C-F--------------------------------------
Iteration    Energy (Eh)           Delta-E    RMSDP     MaxDP     MaxGrad    Time(sec)
--------------------------------------------------------------------------------------
    1    -919.7042220054117934     0.00e+00  9.38e-08  1.46e-06  1.51e-07     1.8
               *** Restarting incremental Fock matrix formation ***
    2    -919.7042220054265727    -1.48e-11  6.77e-08  1.26e-06  2.55e-07     1.8
                  *** Gradient check signals convergence ***

               *****************************************************
               *                     SUCCESS                       *
               *           SCF CONVERGED AFTER   2 CYCLES          *
               *****************************************************

             **** ENERGY FILE WAS UPDATED (HCl2.en.tmp) ****

----------------
TOTAL SCF ENERGY
----------------

Total Energy       :       -919.70422200542657 Eh          -25026.42420 eV

Components:
Nuclear Repulsion  :        114.94519505485442 Eh            3127.81777 eV
Electronic Energy  :      -1034.64941706028094 Eh          -28154.24197 eV
One Electron Energy:      -1499.37949938944644 Eh          -40800.19042 eV
Two Electron Energy:        464.73008232916550 Eh           12645.94845 eV

Virial components:
Potential Energy   :      -1841.89979696747059 Eh          -50120.64156 eV
Kinetic Energy     :        922.19557496204391 Eh           25094.21736 eV
Virial Ratio       :          1.99729845487849

---------------
SCF CONVERGENCE
---------------

  Last Energy change         ...    1.4779e-11  Tolerance :   1.0000e-08
  Last MAX-Density change    ...    1.2573e-06  Tolerance :   1.0000e-07
  Last RMS-Density change    ...    6.7726e-08  Tolerance :   5.0000e-09
  Last DIIS Error            ...    1.9668e-06  Tolerance :   5.0000e-07
  Last Orbital Gradient      ...    2.5480e-07  Tolerance :   1.0000e-05
  Last Orbital Rotation      ...    6.1152e-07  Tolerance :   1.0000e-05


----------------
ORBITAL ENERGIES
----------------

  NO   OCC          E(Eh)            E(eV) 
   0   2.0000    -104.858483     -2853.3444 
   1   2.0000    -104.858480     -2853.3443 
   2   2.0000     -10.598355      -288.3959 
   3   2.0000     -10.597631      -288.3762 
   4   2.0000      -8.068420      -219.5529 
   5   2.0000      -8.066100      -219.4897 
   6   2.0000      -8.058410      -219.2805 
   7   2.0000      -8.058309      -219.2777 
   8   2.0000      -8.057782      -219.2634 
   9   2.0000      -8.057699      -219.2611 
  10   2.0000      -1.387293       -37.7502 
  11   2.0000      -1.052871       -28.6501 
  12   2.0000      -0.811626       -22.0855 
  13   2.0000      -0.648117       -17.6361 
  14   2.0000      -0.644762       -17.5449 
  15   2.0000      -0.478034       -13.0080 
[...]
      px      :     3.362892
      py      :     3.534628
      dz2     :     0.032580  d :     0.151078
      dxz     :     0.018887
      dyz     :     0.017750
      dx2y2   :     0.032075
      dxy     :     0.049786
      f0      :     0.001499  f :     0.023133
      f+1     :     0.004939
      f-1     :     0.002558
      f+2     :     0.001370
      f-2     :     0.001515
      f+3     :     0.001817
      f-3     :     0.009437
  1 H s       :     0.795544  s :     0.795544
      pz      :     0.190358  p :     0.687509
      px      :     0.277467
      py      :     0.219684
      dz2     :     0.032419  d :     0.436260
      dxz     :     0.115308
      dyz     :     0.038931
      dx2y2   :     0.139235
      dxy     :     0.110366
  2 Cls       :     5.387643  s :     5.387643
      pz      :     3.621312  p :    10.518833
      px      :     3.362892
      py      :     3.534628
      dz2     :     0.032580  d :     0.151078
      dxz     :     0.018887
      dyz     :     0.017750
      dx2y2   :     0.032075
      dxy     :     0.049786
      f0      :     0.001499  f :     0.023133
      f+1     :     0.004939
      f-1     :     0.002558
      f+2     :     0.001370
      f-2     :     0.001515
      f+3     :     0.001817
      f-3     :     0.009437
  3 H s       :     0.795544  s :     0.795544
      pz      :     0.190358  p :     0.687509
      px      :     0.277467
      py      :     0.219685
      dz2     :     0.032419  d :     0.436260
      dxz     :     0.115308
      dyz     :     0.038931
      dx2y2   :     0.139235
      dxy     :     0.110366


                      *****************************
                      * MAYER POPULATION ANALYSIS *
                      *****************************

  NA   - Mulliken gross atomic population
  ZA   - Total nuclear charge
  QA   - Mulliken gross atomic charge
  VA   - Mayer's total valence
  BVA  - Mayer's bonded valence
  FA   - Mayer's free valence

  ATOM       NA         ZA         QA         VA         BVA        FA
  0 Cl    17.1912    17.0000    -0.1912     1.5277     1.0104     0.5173
  1 H      0.8088     1.0000     0.1912     1.0706     1.0070     0.0636
  2 Cl    17.1912    17.0000    -0.1912     1.5277     1.0104     0.5173
  3 H      0.8088     1.0000     0.1912     1.0706     1.0070     0.0636

  Mayer bond orders larger than 0.100000
B(  0-Cl,  1-H ) :   1.0065 B(  2-Cl,  3-H ) :   1.0065 


                *******************************************
                * RELAXED MP2 DENSITY POPULATION ANALYSIS *
                *******************************************

------------------------------------------------------------------------------
                           ORCA POPULATION ANALYSIS
------------------------------------------------------------------------------
Input electron density              ... HCl2.pmp2re
BaseName (.gbw .S,...)              ... HCl2

                    ********************************
                    * MULLIKEN POPULATION ANALYSIS *
                    ********************************

-----------------------
MULLIKEN ATOMIC CHARGES
-----------------------
   0 Cl:   -0.189310
   1 H :    0.189310
   2 Cl:   -0.189310
   3 H :    0.189310
Sum of atomic charges:   -0.0000000

--------------------------------
MULLIKEN REDUCED ORBITAL CHARGES
--------------------------------
  0 Cls       :     5.929044  s :     5.929044
      pz      :     3.919135  p :    11.132970
      px      :     3.450892
      py      :     3.762944
      dz2     :     0.024161  d :     0.114234
      dxz     :     0.017749
      dyz     :     0.017604
      dx2y2   :     0.022162
      dxy     :     0.032558
      f0      :     0.001447  f :     0.013061
      f+1     :     0.002223
      f-1     :     0.001637
      f+2     :     0.001366
      f-2     :     0.001469
      f+3     :     0.001611
      f-3     :     0.003307
  1 H s       :     0.687731  s :     0.687731
      pz      :     0.040819  p :     0.104420
      px      :     0.027985
      py      :     0.035617
      dz2     :     0.001099  d :     0.018539
      dxz     :     0.005418
      dyz     :     0.001923
      dx2y2   :     0.006302
      dxy     :     0.003797
  2 Cls       :     5.929044  s :     5.929044
      pz      :     3.919135  p :    11.132970
      px      :     3.450892
      py      :     3.762944
      dz2     :     0.024161  d :     0.114234
      dxz     :     0.017749
      dyz     :     0.017604
      dx2y2   :     0.022162
      dxy     :     0.032558
      f0      :     0.001447  f :     0.013061
      f+1     :     0.002223
      f-1     :     0.001637
      f+2     :     0.001366
      f-2     :     0.001469
      f+3     :     0.001611
      f-3     :     0.003307
  3 H s       :     0.687731  s :     0.687731
      pz      :     0.040819  p :     0.104420
      px      :     0.027985
      py      :     0.035617
      dz2     :     0.001099  d :     0.018539
      dxz     :     0.005418
      dyz     :     0.001923
      dx2y2   :     0.006302
      dxy     :     0.003797


                     *******************************
                     * LOEWDIN POPULATION ANALYSIS *
                     *******************************

----------------------
LOEWDIN ATOMIC CHARGES
----------------------
   0 Cl:    0.922196
   1 H :   -0.922196
   2 Cl:    0.922196
   3 H :   -0.922196

-------------------------------
LOEWDIN REDUCED ORBITAL CHARGES
-------------------------------
  0 Cls       :     5.390235  s :     5.390235
      pz      :     3.617421  p :    10.522832
      px      :     3.370785
      py      :     3.534626
      dz2     :     0.030768  d :     0.141672
      dxz     :     0.018047
      dyz     :     0.017446
      dx2y2   :     0.029926
      dxy     :     0.045485
      f0      :     0.001468  f :     0.023064
      f+1     :     0.004968
      f-1     :     0.002562
      f+2     :     0.001356
      f-2     :     0.001479
      f+3     :     0.001741
      f-3     :     0.009491
  1 H s       :     0.787777  s :     0.787777
      pz      :     0.196927  p :     0.700685
      px      :     0.279178
      py      :     0.224581
      dz2     :     0.032522  d :     0.433734
      dxz     :     0.114216
      dyz     :     0.038570
      dx2y2   :     0.138177
      dxy     :     0.110248
  2 Cls       :     5.390235  s :     5.390235
      pz      :     3.617421  p :    10.522832
      px      :     3.370785
      py      :     3.534626
      dz2     :     0.030768  d :     0.141672
      dxz     :     0.018047
      dyz     :     0.017446
      dx2y2   :     0.029926
      dxy     :     0.045485
      f0      :     0.001468  f :     0.023064
      f+1     :     0.004968
      f-1     :     0.002562
      f+2     :     0.001356
      f-2     :     0.001479
      f+3     :     0.001741
      f-3     :     0.009491
  3 H s       :     0.787777  s :     0.787777
      pz      :     0.196927  p :     0.700686
      px      :     0.279178
      py      :     0.224581
      dz2     :     0.032522  d :     0.433734
      dxz     :     0.114216
      dyz     :     0.038570
      dx2y2   :     0.138177
      dxy     :     0.110248


                      *****************************
                      * MAYER POPULATION ANALYSIS *
                      *****************************

  NA   - Mulliken gross atomic population
  ZA   - Total nuclear charge
  QA   - Mulliken gross atomic charge
  VA   - Mayer's total valence
  BVA  - Mayer's bonded valence
  FA   - Mayer's free valence

  ATOM       NA         ZA         QA         VA         BVA        FA
  0 Cl    17.1893    17.0000    -0.1893     1.5399     1.0264     0.5135
  1 H      0.8107     1.0000     0.1893     1.0855     1.0217     0.0638
  2 Cl    17.1893    17.0000    -0.1893     1.5399     1.0264     0.5135
  3 H      0.8107     1.0000     0.1893     1.0855     1.0217     0.0638

  Mayer bond orders larger than 0.100000
B(  0-Cl,  1-H ) :   1.0211 B(  2-Cl,  3-H ) :   1.0211 


----------------------------------
MP2 DERIVATIVE INTEGRAL GENERATION
----------------------------------

Input SCF Electron Density              ... HCl2.scfp
Input Correlated Electron Density       ... HCl2.pmp2re
Input Energy Weighted Density           ... HCl2.wmp2.tmp
Input Wavefunction Amplitudes           ... HCl2.mp2tsaa.tmp

Nuclear repulsion gradient              ... done (  0.0 sec)
HCore & Overlap gradient  (SHARK)       ... done (  0.0 sec)
Analytic two-electron gradient terms    ... 
  Batch handling in the gradient evaluation:
  General contraction                   ... not used
  Memory available                      ... 4069.6 MB
  Memory per occupied orbital in Q2     ...    1.3 MB
  Memory per occupied orbital in Q3     ...    0.1 MB
  Total memory requirement per |i>      ...    1.4 MB
  Number of orbitals treated per batch  ...      8
  Number of batches to be done          ...      1
done ( 10.3 sec)

---------------------------------------
MP2 TOTAL ENERGY:     -920.630825314 Eh
---------------------------------------

The final MP2 gradient
  0:  -0.00010707   0.00014871   0.00000000
  1:  -0.00003223  -0.00014871  -0.00000000
  2:   0.00010714   0.00014867  -0.00000000
  3:   0.00003216  -0.00014867   0.00000000

-----------------------------------
NORM OF THE MP2 GRADIENT:  0.000337
-----------------------------------

Maximum memory used throughout the entire MP2-calculation: 163.7 MB

-------------------------   --------------------
FINAL SINGLE POINT ENERGY      -920.630825313724
-------------------------   --------------------

                                *** OPTIMIZATION RUN DONE ***


Storing optimized geometry in HCl2.005.xyz ... done
Storing optimized geometry and energy in HCl2.xyzall ... done
Storing actual gbw-file in HCl2.005.gbw ... done

------------------------------------------------------------------------------
                              ORCA PROPERTY CALCULATIONS
------------------------------------------------------------------------------

GBWName                                 ... HCl2.gbw
Number of atoms                         ...      4
Number of basis functions               ...    196
Max core memory                         ...   1024 MB

Electric properties:
Dipole moment                           ... YES
Quadrupole moment                       ...  NO
Static polarizability (Dipole/Dipole)   ...  NO
Static polarizability (Dipole/Quad.)    ...  NO
Static polarizability (Quad./Quad.)     ...  NO
Static polarizability (Velocity)        ...  NO

Atomic electric properties:
Dipole moment                           ...  NO
Quadrupole moment                       ...  NO
Static polarizability                   ...  NO

Choice of electric origin               ... Center of mass
Position of electric origin             ...     4.732218     1.171395     0.000000

General magnetic properties:
Magnetizability                         ...  NO

EPR properties:
g-Tensor (aka g-matrix)                 ...  NO
Zero-Field splitting spin-orbit         ...  NO
Zero-field splitting spin-spin          ...  NO
Hyperfine couplings                     ...  NO (   0 nuclei)
Quadrupole couplings                    ...  NO (   0 nuclei)
Contact density                         ...  NO (   0 nuclei)

NMR properties:
Chemical shifts                         ...  NO (   0 nuclei)
Spin-rotation constants                 ...  NO (   0 nuclei)
Spin-spin couplings                     ...  NO (   0 nuclei,    0 pairs)

Choice of magnetic origin               ... GIAO
Position of magnetic origin             ...     0.000000     0.000000     0.000000

Properties with geometric perturbations:
SCF Hessian                             ...  NO
IR spectrum                             ...  NO
VCD spectrum                            ...  NO
X-ray spectroscopy properties:
SCF XES/XAS/RIXS spectra                ...  NO


-------------
DIPOLE MOMENT
-------------

Method             : SCF
Type of density    : Electron Density
Multiplicity       :   1
Irrep              :   0
Energy             :  -920.2144625401957683 Eh
Relativity type    : 
Basis              : AO
                                X                 Y                 Z
Electronic contribution:      0.000000135       0.726615159      -0.000000000
Nuclear contribution   :     -0.000000223      -1.210416261       0.000000000
                        -----------------------------------------
Total Dipole Moment    :     -0.000000088      -0.483801102       0.000000000
                        -----------------------------------------
Magnitude (a.u.)       :      0.483801102
Magnitude (Debye)      :      1.229724674



--------------------
Rotational spectrum 
--------------------
 
Rotational constants in cm-1:            21.160296             0.059786             0.059618 
Rotational constants in MHz :        634369.700284          1792.350057          1787.300214 

Dipole components along the rotational axes: 
x,y,z [a.u.] :    -0.000000     0.483801     0.000000 
x,y,z [Debye]:    -0.000000     1.229725     0.000000 

 

-------------
DIPOLE MOMENT
-------------

Method             : MP2
Type of density    : Electron Density
Multiplicity       :   1
Level              : Unrelaxed density
Irrep              :   0
Energy             :     0.0000000000000000 Eh
Relativity type    : 
Basis              : AO
                                X                 Y                 Z
Electronic contribution:      0.000000138       0.733908194      -0.000000000
Nuclear contribution   :     -0.000000223      -1.210416261       0.000000000
                        -----------------------------------------
Total Dipole Moment    :     -0.000000085      -0.476508067       0.000000000
                        -----------------------------------------
Magnitude (a.u.)       :      0.476508067
Magnitude (Debye)      :      1.211187252



--------------------
Rotational spectrum 
--------------------
 
Rotational constants in cm-1:            21.160296             0.059786             0.059618 
Rotational constants in MHz :        634369.700284          1792.350057          1787.300214 

Dipole components along the rotational axes: 
x,y,z [a.u.] :    -0.000000     0.476508     0.000000 
x,y,z [Debye]:    -0.000000     1.211187     0.000000 

 

-------------
DIPOLE MOMENT
-------------

Method             : MP2
Type of density    : Electron Density
Multiplicity       :   1
Level              : Relaxed density
Irrep              :   0
Energy             :     0.0000000000000000 Eh
Relativity type    : 
Basis              : AO
                                X                 Y                 Z
Electronic contribution:      0.000000140       0.760021970      -0.000000000
Nuclear contribution   :     -0.000000223      -1.210416261       0.000000000
                        -----------------------------------------
Total Dipole Moment    :     -0.000000083      -0.450394291       0.000000000
                        -----------------------------------------
Magnitude (a.u.)       :      0.450394291
Magnitude (Debye)      :      1.144811309



--------------------
Rotational spectrum 
--------------------
 
Rotational constants in cm-1:            21.160296             0.059786             0.059618 
Rotational constants in MHz :        634369.700284          1792.350057          1787.300214 

Dipole components along the rotational axes: 
x,y,z [a.u.] :    -0.000000     0.450394     0.000000 
x,y,z [Debye]:    -0.000000     1.144811     0.000000 

 

Dipole moment calculation done in   0.0 sec 

Maximum memory used throughout the entire PROP-calculation: 10.1 MB
                   **** RELAXED SURFACE SCAN DONE ***

                    SUMMARY OF THE CALCULATED SURFACE

----------------------------
RELAXED SURFACE SCAN RESULTS
----------------------------

Column   1: NONAME

The Calculated Surface using the 'Actual Energy'
   2.80000000 -920.18523536
   3.35000000 -920.54880319
   3.90000000 -920.61988809
   4.45000000 -920.63008911
   5.00000000 -920.63082531

The Calculated Surface using the SCF energy
   2.80000000 -919.70422201
   3.35000000 -920.11093951
   3.90000000 -920.19646051
   4.45000000 -920.21184244
   5.00000000 -920.21446254

The Calculated Surface using the MP2 energy
   2.80000000 -920.18523536
   3.35000000 -920.54880319
   3.90000000 -920.61988809
   4.45000000 -920.63008911
   5.00000000 -920.63082531


--------------------------------
SUGGESTED CITATIONS FOR THIS RUN
--------------------------------

Below you find a list of papers that are relevant to this ORCA run
We neither can nor want to force you to cite these papers, but we appreciate if you do
You receive ORCA, which is the product of decades of hard work by many enthusiastic individuals, for free
The only thing we kindly ask in return is that you cite our papers,
We deeply appreciate it, if you show your appreciation for ORCA by not just citing the generic ORCA reference.

Please note that relegating all ORCA citations to the supporting information does *not* help us.
SI sections are not indexed - citations you put there will not count into any citation statistics
But we need these citations in order to attract the funding resources that allow us to do what we are doing

Therefore, if you are a happy ORCA user, please consider citing a few of the papers listed below in the main body of your paper

In addition to the list printed below, the program has created the file HCl2.bibtex that contains the list in bibtex format
You can import this file easily into all common literature databanks and citation aid programs


List of essential papers. We consider these as the minimum necessary citations

  1. Neese,F.
     Software update: the ORCA program system, version 5.0
     WIRES Comput. Molec. Sci., 2022 12(1)e1606
     doi.org/10.1002/wcms.1606

List of papers to cite with high priority. The work reported in these papers was absolutely
necessary for this run to complete.
Our perspective: the developers of density functionals and basis sets usually get cited in chemistry papers
Good! But without the algorithms to do something with them, the functionals or basis sets would not do anything.
Hence, in our opinion, the algorithm design and method developments papers are equally worthy of getting cited

  1. Neese,F.
     The SHARK Integral Generation and Digestion System
     J. Comp. Chem., 2022  1-16
     doi.org/10.1002/jcc.26942

List of suggested additional citations. These are papers that are important in the 'surrounding' of 
of this run, or papers that preceded the highly important papers. If you like your results we are grateful for a citation.

  1. Neese,F.
     The ORCA program system
     WIRES Comput. Molec. Sci., 2012 2(1)73-78
     doi.org/10.1002/wcms.81
  2. Neese,F.
     Software update: the ORCA program system, version 4.0
     WIRES Comput. Molec. Sci., 2018 8(1)1-6
     doi.org/10.1002/wcms.1327
  3. Neese,F.; Wennmohs,F.; Becker,U.; Riplinger,C.
     The ORCA quantum chemistry program package
     J. Chem. Phys., 2020 152 Art. No. L224108
     doi.org/10.1063/5.0004608

List of optional additional citations

  1. Neese,F.
     Approximate second-order SCF convergence for spin unrestricted wavefunctions
     Chem. Phys. Lett., 2000 325(1-3)93-98
     doi.org/10.1016/s0009-2614(00)00662-x

Timings for individual modules:

Sum of individual times          ...      428.917 sec (=   7.149 min)
Startup calculation              ...        5.592 sec (=   0.093 min)   1.3 %
SCF iterations                   ...       82.470 sec (=   1.374 min)  19.2 %
Property calculations            ...        0.209 sec (=   0.003 min)   0.0 %
MP2 module                       ...      340.626 sec (=   5.677 min)  79.4 %
Geometry relaxation              ...        0.020 sec (=   0.000 min)   0.0 %
                             ****ORCA TERMINATED NORMALLY****
TOTAL RUN TIME: 0 days 0 hours 7 minutes 9 seconds 130 msec
